 vasp.6.2.0 18Jan21 (build Jan  9 2022 18:25:22) complex                         
 executed on             LinuxGNU date 2022.01.11  00:30:52
 running on   10 total cores
 distrk:  each k-point on   10 cores,    1 groups
 distr:  one band on NCORE=   1 cores,   10 groups


--------------------------------------------------------------------------------------------------------


 INCAR:
   LDAU = .TRUE.        (Activate DFT+U)
   LDATYPE = 2            (Dudarev
   LDAUL = 2 -1         (Orbitals for each species)
   LDAUU = 4.5  0         (U for each species)
   LDAUJ = 0  0         (J for each species)
   LMAXMIX = 4            (Mixing cut-off
   ISTART = 1            (Read existing wavefunction
   ISPIN = 2            (Non-Spin polarised DFT)
   ICHARG = 11         (Non-self-consistent: GGA/LDA band structures)
   LREAL = .FALSE.       (Projection operators: automatic)
   ENCUT = 520        (Cut-off energy for plane wave basis set, in eV)
   PREC = Accurate       (Precision level)
   LWAVE = .TRUE.        (Write WAVECAR or not)
   LCHARG = .TRUE.        (Write CHGCAR or not)
   ADDGRID = .TRUE.        (Increase grid
   ISMEAR = 0            (Gaussian smearing
   SIGMA = 0.05         (Smearing value in eV
   NELM = 90           (Max electronic SCF steps)
   NELMIN = 6            (Min electronic SCF steps)
   EDIFF = 1E-08        (SCF energy convergence
   LORBIT = 11
   EDIFFG = -2E-02        (Ionic convergence

 POTCAR:    PAW_PBE Ti_sv 26Sep2005               
 POTCAR:    PAW_PBE O 08Apr2002                   
 -----------------------------------------------------------------------------
|                                                                             |
|           W    W    AA    RRRRR   N    N  II  N    N   GGGG   !!!           |
|           W    W   A  A   R    R  NN   N  II  NN   N  G    G  !!!           |
|           W    W  A    A  R    R  N N  N  II  N N  N  G       !!!           |
|           W WW W  AAAAAA  RRRRR   N  N N  II  N  N N  G  GGG   !            |
|           WW  WW  A    A  R   R   N   NN  II  N   NN  G    G                |
|           W    W  A    A  R    R  N    N  II  N    N   GGGG   !!!           |
|                                                                             |
|     You use a magnetic or noncollinear calculation, but did not specify     |
|     the initial magnetic moment with the MAGMOM tag. Note that a            |
|     default of 1 will be used for all atoms. This ferromagnetic setup       |
|     may break the symmetry of the crystal, in particular it may rule        |
|     out finding an antiferromagnetic solution. Thence, we recommend         |
|     setting the initial magnetic moment manually or verifying carefully     |
|     that this magnetic setup is desired.                                    |
|                                                                             |
 -----------------------------------------------------------------------------

 -----------------------------------------------------------------------------
|                                                                             |
|           W    W    AA    RRRRR   N    N  II  N    N   GGGG   !!!           |
|           W    W   A  A   R    R  NN   N  II  NN   N  G    G  !!!           |
|           W    W  A    A  R    R  N N  N  II  N N  N  G       !!!           |
|           W WW W  AAAAAA  RRRRR   N  N N  II  N  N N  G  GGG   !            |
|           WW  WW  A    A  R   R   N   NN  II  N   NN  G    G                |
|           W    W  A    A  R    R  N    N  II  N    N   GGGG   !!!           |
|                                                                             |
|     For optimal performance we recommend to set                             |
|       NCORE = 2 up to number-of-cores-per-socket                            |
|     NCORE specifies how many cores store one orbital (NPAR=cpu/NCORE).      |
|     This setting can greatly improve the performance of VASP for DFT.       |
|     The default, NCORE=1 might be grossly inefficient on modern             |
|     multi-core architectures or massively parallel machines. Do your        |
|     own testing! More info at https://www.vasp.at/wiki/index.php/NCORE      |
|     Unfortunately you need to use the default for GW and RPA                |
|     calculations (for HF NCORE is supported but not extensively tested      |
|     yet).                                                                   |
|                                                                             |
 -----------------------------------------------------------------------------

 POTCAR:    PAW_PBE Ti_sv 26Sep2005               
   VRHFIN =Ti: 3p4s3d                                                                               
   LEXCH  = PE                                                                                      
   EATOM  =  1588.0892 eV,  116.7213 Ry                                                             
                                                                                                    
   TITEL  = PAW_PBE Ti_sv 26Sep2005                                                                 
   LULTRA =        F    use ultrasoft PP ?                                                          
   IUNSCR =        1    unscreen: 0-lin 1-nonlin 2-no                                               
   RPACOR =    2.000    partial core radius                                                         
   POMASS =   47.880; ZVAL   =   12.000    mass and valenz                                          
   RCORE  =    2.300    outmost cutoff radius                                                       
   RWIGS  =    2.300; RWIGS  =    1.217    wigner-seitz radius (au A)                               
   ENMAX  =  274.610; ENMIN  =  205.957 eV                                                          
   ICORE  =        3    local potential                                                             
   LCOR   =        T    correct aug charges                                                         
   LPAW   =        T    paw PP                                                                      
   EAUG   =  482.848                                                                                
   RMAX   =    2.348    core radius for proj-oper                                                   
   RAUG   =    1.300    factor for augmentation sphere                                              
   RDEP   =    2.381    radius for radial grids                                                     
   RDEPT  =    1.930    core radius for aug-charge                                                  
                                                                                                    
   Atomic configuration                                                                             
    8 entries                                                                                       
     n  l   j            E        occ.                                                              
     1  0  0.50     -4865.3608   2.0000                                                             
     2  0  0.50      -533.1368   2.0000                                                             
     2  1  1.50      -440.5031   6.0000                                                             
     3  0  0.50       -59.3186   2.0000                                                             
     4  0  0.50        -3.7291   1.0000                                                             
     3  1  1.50       -35.7012   6.0000                                                             
     3  2  2.50        -1.9157   3.0000                                                             
     4  3  2.50        -1.3606   0.0000                                                             
   Description                                                                                      
     l       E           TYP  RCUT    TYP  RCUT                                                     
     0    -59.3185931     23  1.800                                                                 
     0     -3.7290822     23  2.300                                                                 
     1    -35.7012045     23  2.300                                                                 
     1     -1.3605826     23  2.300                                                                 
     2     -1.9156920     23  2.300                                                                 
     2     -0.0236318     23  2.300                                                                 
     3     -1.3605826     23  2.300                                                                 
  local pseudopotential read in
  partial core-charges read in
  partial kinetic energy density read in
  atomic valenz-charges read in
  non local Contribution for L=           0  read in
    real space projection operators read in
  non local Contribution for L=           0  read in
    real space projection operators read in
  non local Contribution for L=           1  read in
    real space projection operators read in
  non local Contribution for L=           1  read in
    real space projection operators read in
  non local Contribution for L=           2  read in
    real space projection operators read in
  non local Contribution for L=           2  read in
    real space projection operators read in
    PAW grid and wavefunctions read in

   number of l-projection  operators is LMAX  =           6
   number of lm-projection operators is LMMAX =          18

 POTCAR:    PAW_PBE O 08Apr2002                   
   VRHFIN =O: s2p4                                                                                  
   LEXCH  = PE                                                                                      
   EATOM  =   432.3788 eV,   31.7789 Ry                                                             
                                                                                                    
   TITEL  = PAW_PBE O 08Apr2002                                                                     
   LULTRA =        F    use ultrasoft PP ?                                                          
   IUNSCR =        1    unscreen: 0-lin 1-nonlin 2-no                                               
   RPACOR =    1.200    partial core radius                                                         
   POMASS =   16.000; ZVAL   =    6.000    mass and valenz                                          
   RCORE  =    1.520    outmost cutoff radius                                                       
   RWIGS  =    1.550; RWIGS  =    0.820    wigner-seitz radius (au A)                               
   ENMAX  =  400.000; ENMIN  =  300.000 eV                                                          
   ICORE  =        2    local potential                                                             
   LCOR   =        T    correct aug charges                                                         
   LPAW   =        T    paw PP                                                                      
   EAUG   =  605.392                                                                                
   DEXC   =    0.000                                                                                
   RMAX   =    1.553    core radius for proj-oper                                                   
   RAUG   =    1.300    factor for augmentation sphere                                              
   RDEP   =    1.550    radius for radial grids                                                     
   RDEPT  =    1.329    core radius for aug-charge                                                  
                                                                                                    
   Atomic configuration                                                                             
    4 entries                                                                                       
     n  l   j            E        occ.                                                              
     1  0  0.50      -514.6923   2.0000                                                             
     2  0  0.50       -23.9615   2.0000                                                             
     2  1  0.50        -9.0305   4.0000                                                             
     3  2  1.50        -9.5241   0.0000                                                             
   Description                                                                                      
     l       E           TYP  RCUT    TYP  RCUT                                                     
     0    -23.9615318     23  1.200                                                                 
     0     -9.5240782     23  1.200                                                                 
     1     -9.0304911     23  1.520                                                                 
     1      8.1634956     23  1.520                                                                 
     2     -9.5240782      7  1.500                                                                 
  local pseudopotential read in
  partial core-charges read in
  partial kinetic energy density read in
  kinetic energy density of atom read in
  atomic valenz-charges read in
  non local Contribution for L=           0  read in
    real space projection operators read in
  non local Contribution for L=           0  read in
    real space projection operators read in
  non local Contribution for L=           1  read in
    real space projection operators read in
  non local Contribution for L=           1  read in
    real space projection operators read in
    PAW grid and wavefunctions read in

   number of l-projection  operators is LMAX  =           4
   number of lm-projection operators is LMMAX =           8

  PAW_PBE Ti_sv 26Sep2005               :
 energy of atom  1       EATOM=-1588.0892
 kinetic energy error for atom=    0.0042 (will be added to EATOM!!)
  PAW_PBE O 08Apr2002                   :
 energy of atom  2       EATOM= -432.3788
 kinetic energy error for atom=    0.0208 (will be added to EATOM!!)


 POSCAR: Ti2 O4
  positions in cartesian coordinates
  No initial velocities read in
 exchange correlation table for  LEXCH =        8
   RHO(1)=    0.500       N(1)  =     2000
   RHO(2)=  100.500       N(2)  =     4000



--------------------------------------------------------------------------------------------------------


 ion  position               nearest neighbor table
   1  0.500  0.500  0.500-   5 1.96   5 1.96   6 1.96   6 1.96   3 2.00   4 2.00
   2  0.000  0.000  0.000-   3 1.96   4 1.96   3 1.96   4 1.96   6 2.00   5 2.00
   3  0.195  0.805  0.500-   2 1.96   2 1.96   1 2.00
   4  0.805  0.195  0.500-   2 1.96   2 1.96   1 2.00
   5  0.305  0.305  0.000-   1 1.96   1 1.96   2 2.00
   6  0.695  0.695  0.000-   1 1.96   1 1.96   2 2.00

  LATTYP: Found a simple tetragonal cell.
 ALAT       =     4.6532721519
 C/A-ratio  =     0.6380892624
  
  Lattice vectors:
  
 A1 = (   4.6532721519,   0.0000000000,   0.0000000000)
 A2 = (   0.0000000000,   4.6532721519,   0.0000000000)
 A3 = (   0.0000000000,   0.0000000000,   2.9692029953)


Analysis of symmetry for initial positions (statically):
=====================================================================
 Subroutine PRICEL returns:
 Original cell was already a primitive cell.
 

 Routine SETGRP: Setting up the symmetry group for a 
 simple tetragonal supercell.


 Subroutine GETGRP returns: Found 16 space group operations
 (whereof  8 operations were pure point group operations)
 out of a pool of 16 trial point group operations.


The static configuration has the point symmetry D_2h.
 The point group associated with its full space group is D_4h.


Analysis of symmetry for dynamics (positions and initial velocities):
=====================================================================
 Subroutine PRICEL returns:
 Original cell was already a primitive cell.
 

 Routine SETGRP: Setting up the symmetry group for a 
 simple tetragonal supercell.


 Subroutine GETGRP returns: Found 16 space group operations
 (whereof  8 operations were pure point group operations)
 out of a pool of 16 trial point group operations.


The dynamic configuration has the point symmetry D_2h.
 The point group associated with its full space group is D_4h.


Analysis of structural, dynamic, and magnetic symmetry:
=====================================================================
 Subroutine PRICEL returns:
 Original cell was already a primitive cell.
 

 Routine SETGRP: Setting up the symmetry group for a 
 simple tetragonal supercell.


 Subroutine GETGRP returns: Found 16 space group operations
 (whereof  8 operations were pure point group operations)
 out of a pool of 16 trial point group operations.


The overall configuration has the point symmetry D_2h.
 The point group associated with its full space group is D_4h.


 Subroutine INISYM returns: Found 16 space group operations
 (whereof  8 operations are pure point group operations),
 and found     1 'primitive' translations


----------------------------------------------------------------------------------------

                                     Primitive cell                                     

  volume of cell :      64.2920

  direct lattice vectors                    reciprocal lattice vectors
     4.653272152  0.000000000  0.000000000     0.214902539  0.000000000  0.000000000
     0.000000000  4.653272152  0.000000000     0.000000000  0.214902539  0.000000000
     0.000000000  0.000000000  2.969202995     0.000000000  0.000000000  0.336790715

  length of vectors
     4.653272152  4.653272152  2.969202995     0.214902539  0.214902539  0.336790715

  position of ions in fractional coordinates (direct lattice)
     0.500000000  0.500000000  0.500000000
     0.000000000  0.000000000  0.000000000
     0.195419997  0.804579973  0.500000000
     0.804579973  0.195419997  0.500000000
     0.304580003  0.304580003  0.000000000
     0.695420027  0.695420027  0.000000000

  ion indices of the primitive-cell ions
   primitive index   ion index
                 1           1
                 2           2
                 3           3
                 4           4
                 5           5
                 6           6

----------------------------------------------------------------------------------------



 KPOINTS: K-Path Generated by VASPKIT.            

Interpolating k-points between supplied coordinates.

 Line segments in fractional coordinates (reciprocal lattice):
    0.000000  0.000000  0.000000  ...  0.000000  0.500000  0.000000
    0.000000  0.500000  0.000000  ...  0.500000  0.500000  0.000000
    0.500000  0.500000  0.000000  ...  0.000000  0.000000  0.000000
    0.000000  0.000000  0.000000  ...  0.000000  0.000000  0.500000
    0.000000  0.000000  0.500000  ...  0.000000  0.500000  0.500000
    0.000000  0.500000  0.500000  ...  0.500000  0.500000  0.500000
    0.500000  0.500000  0.500000  ...  0.000000  0.000000  0.500000
    0.000000  0.500000  0.000000  ...  0.000000  0.500000  0.500000
    0.500000  0.500000  0.000000  ...  0.500000  0.500000  0.500000

 Generated    20 points on each line segment, for a total of    180 k-points:

 Following reciprocal coordinates:
            Coordinates               Weight
  0.000000  0.000000  0.000000      0.005556
  0.000000  0.026316  0.000000      0.005556
  0.000000  0.052632  0.000000      0.005556
  0.000000  0.078947  0.000000      0.005556
  0.000000  0.105263  0.000000      0.005556
  0.000000  0.131579  0.000000      0.005556
  0.000000  0.157895  0.000000      0.005556
  0.000000  0.184211  0.000000      0.005556
  0.000000  0.210526  0.000000      0.005556
  0.000000  0.236842  0.000000      0.005556
  0.000000  0.263158  0.000000      0.005556
  0.000000  0.289474  0.000000      0.005556
  0.000000  0.315789  0.000000      0.005556
  0.000000  0.342105  0.000000      0.005556
  0.000000  0.368421  0.000000      0.005556
  0.000000  0.394737  0.000000      0.005556
  0.000000  0.421053  0.000000      0.005556
  0.000000  0.447368  0.000000      0.005556
  0.000000  0.473684  0.000000      0.005556
  0.000000  0.500000  0.000000      0.005556
  0.000000  0.500000  0.000000      0.005556
  0.026316  0.500000  0.000000      0.005556
  0.052632  0.500000  0.000000      0.005556
  0.078947  0.500000  0.000000      0.005556
  0.105263  0.500000  0.000000      0.005556
  0.131579  0.500000  0.000000      0.005556
  0.157895  0.500000  0.000000      0.005556
  0.184211  0.500000  0.000000      0.005556
  0.210526  0.500000  0.000000      0.005556
  0.236842  0.500000  0.000000      0.005556
  0.263158  0.500000  0.000000      0.005556
  0.289474  0.500000  0.000000      0.005556
  0.315789  0.500000  0.000000      0.005556
  0.342105  0.500000  0.000000      0.005556
  0.368421  0.500000  0.000000      0.005556
  0.394737  0.500000  0.000000      0.005556
  0.421053  0.500000  0.000000      0.005556
  0.447368  0.500000  0.000000      0.005556
  0.473684  0.500000  0.000000      0.005556
  0.500000  0.500000  0.000000      0.005556
  0.500000  0.500000  0.000000      0.005556
  0.473684  0.473684  0.000000      0.005556
  0.447368  0.447368  0.000000      0.005556
  0.421053  0.421053  0.000000      0.005556
  0.394737  0.394737  0.000000      0.005556
  0.368421  0.368421  0.000000      0.005556
  0.342105  0.342105  0.000000      0.005556
  0.315789  0.315789  0.000000      0.005556
  0.289474  0.289474  0.000000      0.005556
  0.263158  0.263158  0.000000      0.005556
  0.236842  0.236842  0.000000      0.005556
  0.210526  0.210526  0.000000      0.005556
  0.184211  0.184211  0.000000      0.005556
  0.157895  0.157895  0.000000      0.005556
  0.131579  0.131579  0.000000      0.005556
  0.105263  0.105263  0.000000      0.005556
  0.078947  0.078947  0.000000      0.005556
  0.052632  0.052632  0.000000      0.005556
  0.026316  0.026316  0.000000      0.005556
  0.000000  0.000000  0.000000      0.005556
  0.000000  0.000000  0.000000      0.005556
  0.000000  0.000000  0.026316      0.005556
  0.000000  0.000000  0.052632      0.005556
  0.000000  0.000000  0.078947      0.005556
  0.000000  0.000000  0.105263      0.005556
  0.000000  0.000000  0.131579      0.005556
  0.000000  0.000000  0.157895      0.005556
  0.000000  0.000000  0.184211      0.005556
  0.000000  0.000000  0.210526      0.005556
  0.000000  0.000000  0.236842      0.005556
  0.000000  0.000000  0.263158      0.005556
  0.000000  0.000000  0.289474      0.005556
  0.000000  0.000000  0.315789      0.005556
  0.000000  0.000000  0.342105      0.005556
  0.000000  0.000000  0.368421      0.005556
  0.000000  0.000000  0.394737      0.005556
  0.000000  0.000000  0.421053      0.005556
  0.000000  0.000000  0.447368      0.005556
  0.000000  0.000000  0.473684      0.005556
  0.000000  0.000000  0.500000      0.005556
  0.000000  0.000000  0.500000      0.005556
  0.000000  0.026316  0.500000      0.005556
  0.000000  0.052632  0.500000      0.005556
  0.000000  0.078947  0.500000      0.005556
  0.000000  0.105263  0.500000      0.005556
  0.000000  0.131579  0.500000      0.005556
  0.000000  0.157895  0.500000      0.005556
  0.000000  0.184211  0.500000      0.005556
  0.000000  0.210526  0.500000      0.005556
  0.000000  0.236842  0.500000      0.005556
  0.000000  0.263158  0.500000      0.005556
  0.000000  0.289474  0.500000      0.005556
  0.000000  0.315789  0.500000      0.005556
  0.000000  0.342105  0.500000      0.005556
  0.000000  0.368421  0.500000      0.005556
  0.000000  0.394737  0.500000      0.005556
  0.000000  0.421053  0.500000      0.005556
  0.000000  0.447368  0.500000      0.005556
  0.000000  0.473684  0.500000      0.005556
  0.000000  0.500000  0.500000      0.005556
  0.000000  0.500000  0.500000      0.005556
  0.026316  0.500000  0.500000      0.005556
  0.052632  0.500000  0.500000      0.005556
  0.078947  0.500000  0.500000      0.005556
  0.105263  0.500000  0.500000      0.005556
  0.131579  0.500000  0.500000      0.005556
  0.157895  0.500000  0.500000      0.005556
  0.184211  0.500000  0.500000      0.005556
  0.210526  0.500000  0.500000      0.005556
  0.236842  0.500000  0.500000      0.005556
  0.263158  0.500000  0.500000      0.005556
  0.289474  0.500000  0.500000      0.005556
  0.315789  0.500000  0.500000      0.005556
  0.342105  0.500000  0.500000      0.005556
  0.368421  0.500000  0.500000      0.005556
  0.394737  0.500000  0.500000      0.005556
  0.421053  0.500000  0.500000      0.005556
  0.447368  0.500000  0.500000      0.005556
  0.473684  0.500000  0.500000      0.005556
  0.500000  0.500000  0.500000      0.005556
  0.500000  0.500000  0.500000      0.005556
  0.473684  0.473684  0.500000      0.005556
  0.447368  0.447368  0.500000      0.005556
  0.421053  0.421053  0.500000      0.005556
  0.394737  0.394737  0.500000      0.005556
  0.368421  0.368421  0.500000      0.005556
  0.342105  0.342105  0.500000      0.005556
  0.315789  0.315789  0.500000      0.005556
  0.289474  0.289474  0.500000      0.005556
  0.263158  0.263158  0.500000      0.005556
  0.236842  0.236842  0.500000      0.005556
  0.210526  0.210526  0.500000      0.005556
  0.184211  0.184211  0.500000      0.005556
  0.157895  0.157895  0.500000      0.005556
  0.131579  0.131579  0.500000      0.005556
  0.105263  0.105263  0.500000      0.005556
  0.078947  0.078947  0.500000      0.005556
  0.052632  0.052632  0.500000      0.005556
  0.026316  0.026316  0.500000      0.005556
  0.000000  0.000000  0.500000      0.005556
  0.000000  0.500000  0.000000      0.005556
  0.000000  0.500000  0.026316      0.005556
  0.000000  0.500000  0.052632      0.005556
  0.000000  0.500000  0.078947      0.005556
  0.000000  0.500000  0.105263      0.005556
  0.000000  0.500000  0.131579      0.005556
  0.000000  0.500000  0.157895      0.005556
  0.000000  0.500000  0.184211      0.005556
  0.000000  0.500000  0.210526      0.005556
  0.000000  0.500000  0.236842      0.005556
  0.000000  0.500000  0.263158      0.005556
  0.000000  0.500000  0.289474      0.005556
  0.000000  0.500000  0.315789      0.005556
  0.000000  0.500000  0.342105      0.005556
  0.000000  0.500000  0.368421      0.005556
  0.000000  0.500000  0.394737      0.005556
  0.000000  0.500000  0.421053      0.005556
  0.000000  0.500000  0.447368      0.005556
  0.000000  0.500000  0.473684      0.005556
  0.000000  0.500000  0.500000      0.005556
  0.500000  0.500000  0.000000      0.005556
  0.500000  0.500000  0.026316      0.005556
  0.500000  0.500000  0.052632      0.005556
  0.500000  0.500000  0.078947      0.005556
  0.500000  0.500000  0.105263      0.005556
  0.500000  0.500000  0.131579      0.005556
  0.500000  0.500000  0.157895      0.005556
  0.500000  0.500000  0.184211      0.005556
  0.500000  0.500000  0.210526      0.005556
  0.500000  0.500000  0.236842      0.005556
  0.500000  0.500000  0.263158      0.005556
  0.500000  0.500000  0.289474      0.005556
  0.500000  0.500000  0.315789      0.005556
  0.500000  0.500000  0.342105      0.005556
  0.500000  0.500000  0.368421      0.005556
  0.500000  0.500000  0.394737      0.005556
  0.500000  0.500000  0.421053      0.005556
  0.500000  0.500000  0.447368      0.005556
  0.500000  0.500000  0.473684      0.005556
  0.500000  0.500000  0.500000      0.005556

 Following cartesian coordinates:
            Coordinates               Weight
  0.000000  0.000000  0.000000      0.005556
  0.000000  0.005655  0.000000      0.005556
  0.000000  0.011311  0.000000      0.005556
  0.000000  0.016966  0.000000      0.005556
  0.000000  0.022621  0.000000      0.005556
  0.000000  0.028277  0.000000      0.005556
  0.000000  0.033932  0.000000      0.005556
  0.000000  0.039587  0.000000      0.005556
  0.000000  0.045243  0.000000      0.005556
  0.000000  0.050898  0.000000      0.005556
  0.000000  0.056553  0.000000      0.005556
  0.000000  0.062209  0.000000      0.005556
  0.000000  0.067864  0.000000      0.005556
  0.000000  0.073519  0.000000      0.005556
  0.000000  0.079175  0.000000      0.005556
  0.000000  0.084830  0.000000      0.005556
  0.000000  0.090485  0.000000      0.005556
  0.000000  0.096141  0.000000      0.005556
  0.000000  0.101796  0.000000      0.005556
  0.000000  0.107451  0.000000      0.005556
  0.000000  0.107451  0.000000      0.005556
  0.005655  0.107451  0.000000      0.005556
  0.011311  0.107451  0.000000      0.005556
  0.016966  0.107451  0.000000      0.005556
  0.022621  0.107451  0.000000      0.005556
  0.028277  0.107451  0.000000      0.005556
  0.033932  0.107451  0.000000      0.005556
  0.039587  0.107451  0.000000      0.005556
  0.045243  0.107451  0.000000      0.005556
  0.050898  0.107451  0.000000      0.005556
  0.056553  0.107451  0.000000      0.005556
  0.062209  0.107451  0.000000      0.005556
  0.067864  0.107451  0.000000      0.005556
  0.073519  0.107451  0.000000      0.005556
  0.079175  0.107451  0.000000      0.005556
  0.084830  0.107451  0.000000      0.005556
  0.090485  0.107451  0.000000      0.005556
  0.096141  0.107451  0.000000      0.005556
  0.101796  0.107451  0.000000      0.005556
  0.107451  0.107451  0.000000      0.005556
  0.107451  0.107451  0.000000      0.005556
  0.101796  0.101796  0.000000      0.005556
  0.096141  0.096141  0.000000      0.005556
  0.090485  0.090485  0.000000      0.005556
  0.084830  0.084830  0.000000      0.005556
  0.079175  0.079175  0.000000      0.005556
  0.073519  0.073519  0.000000      0.005556
  0.067864  0.067864  0.000000      0.005556
  0.062209  0.062209  0.000000      0.005556
  0.056553  0.056553  0.000000      0.005556
  0.050898  0.050898  0.000000      0.005556
  0.045243  0.045243  0.000000      0.005556
  0.039587  0.039587  0.000000      0.005556
  0.033932  0.033932  0.000000      0.005556
  0.028277  0.028277  0.000000      0.005556
  0.022621  0.022621  0.000000      0.005556
  0.016966  0.016966  0.000000      0.005556
  0.011311  0.011311  0.000000      0.005556
  0.005655  0.005655  0.000000      0.005556
  0.000000  0.000000  0.000000      0.005556
  0.000000  0.000000  0.000000      0.005556
  0.000000  0.000000  0.008863      0.005556
  0.000000  0.000000  0.017726      0.005556
  0.000000  0.000000  0.026589      0.005556
  0.000000  0.000000  0.035452      0.005556
  0.000000  0.000000  0.044315      0.005556
  0.000000  0.000000  0.053177      0.005556
  0.000000  0.000000  0.062040      0.005556
  0.000000  0.000000  0.070903      0.005556
  0.000000  0.000000  0.079766      0.005556
  0.000000  0.000000  0.088629      0.005556
  0.000000  0.000000  0.097492      0.005556
  0.000000  0.000000  0.106355      0.005556
  0.000000  0.000000  0.115218      0.005556
  0.000000  0.000000  0.124081      0.005556
  0.000000  0.000000  0.132944      0.005556
  0.000000  0.000000  0.141807      0.005556
  0.000000  0.000000  0.150670      0.005556
  0.000000  0.000000  0.159532      0.005556
  0.000000  0.000000  0.168395      0.005556
  0.000000  0.000000  0.168395      0.005556
  0.000000  0.005655  0.168395      0.005556
  0.000000  0.011311  0.168395      0.005556
  0.000000  0.016966  0.168395      0.005556
  0.000000  0.022621  0.168395      0.005556
  0.000000  0.028277  0.168395      0.005556
  0.000000  0.033932  0.168395      0.005556
  0.000000  0.039587  0.168395      0.005556
  0.000000  0.045243  0.168395      0.005556
  0.000000  0.050898  0.168395      0.005556
  0.000000  0.056553  0.168395      0.005556
  0.000000  0.062209  0.168395      0.005556
  0.000000  0.067864  0.168395      0.005556
  0.000000  0.073519  0.168395      0.005556
  0.000000  0.079175  0.168395      0.005556
  0.000000  0.084830  0.168395      0.005556
  0.000000  0.090485  0.168395      0.005556
  0.000000  0.096141  0.168395      0.005556
  0.000000  0.101796  0.168395      0.005556
  0.000000  0.107451  0.168395      0.005556
  0.000000  0.107451  0.168395      0.005556
  0.005655  0.107451  0.168395      0.005556
  0.011311  0.107451  0.168395      0.005556
  0.016966  0.107451  0.168395      0.005556
  0.022621  0.107451  0.168395      0.005556
  0.028277  0.107451  0.168395      0.005556
  0.033932  0.107451  0.168395      0.005556
  0.039587  0.107451  0.168395      0.005556
  0.045243  0.107451  0.168395      0.005556
  0.050898  0.107451  0.168395      0.005556
  0.056553  0.107451  0.168395      0.005556
  0.062209  0.107451  0.168395      0.005556
  0.067864  0.107451  0.168395      0.005556
  0.073519  0.107451  0.168395      0.005556
  0.079175  0.107451  0.168395      0.005556
  0.084830  0.107451  0.168395      0.005556
  0.090485  0.107451  0.168395      0.005556
  0.096141  0.107451  0.168395      0.005556
  0.101796  0.107451  0.168395      0.005556
  0.107451  0.107451  0.168395      0.005556
  0.107451  0.107451  0.168395      0.005556
  0.101796  0.101796  0.168395      0.005556
  0.096141  0.096141  0.168395      0.005556
  0.090485  0.090485  0.168395      0.005556
  0.084830  0.084830  0.168395      0.005556
  0.079175  0.079175  0.168395      0.005556
  0.073519  0.073519  0.168395      0.005556
  0.067864  0.067864  0.168395      0.005556
  0.062209  0.062209  0.168395      0.005556
  0.056553  0.056553  0.168395      0.005556
  0.050898  0.050898  0.168395      0.005556
  0.045243  0.045243  0.168395      0.005556
  0.039587  0.039587  0.168395      0.005556
  0.033932  0.033932  0.168395      0.005556
  0.028277  0.028277  0.168395      0.005556
  0.022621  0.022621  0.168395      0.005556
  0.016966  0.016966  0.168395      0.005556
  0.011311  0.011311  0.168395      0.005556
  0.005655  0.005655  0.168395      0.005556
  0.000000  0.000000  0.168395      0.005556
  0.000000  0.107451  0.000000      0.005556
  0.000000  0.107451  0.008863      0.005556
  0.000000  0.107451  0.017726      0.005556
  0.000000  0.107451  0.026589      0.005556
  0.000000  0.107451  0.035452      0.005556
  0.000000  0.107451  0.044315      0.005556
  0.000000  0.107451  0.053177      0.005556
  0.000000  0.107451  0.062040      0.005556
  0.000000  0.107451  0.070903      0.005556
  0.000000  0.107451  0.079766      0.005556
  0.000000  0.107451  0.088629      0.005556
  0.000000  0.107451  0.097492      0.005556
  0.000000  0.107451  0.106355      0.005556
  0.000000  0.107451  0.115218      0.005556
  0.000000  0.107451  0.124081      0.005556
  0.000000  0.107451  0.132944      0.005556
  0.000000  0.107451  0.141807      0.005556
  0.000000  0.107451  0.150670      0.005556
  0.000000  0.107451  0.159532      0.005556
  0.000000  0.107451  0.168395      0.005556
  0.107451  0.107451  0.000000      0.005556
  0.107451  0.107451  0.008863      0.005556
  0.107451  0.107451  0.017726      0.005556
  0.107451  0.107451  0.026589      0.005556
  0.107451  0.107451  0.035452      0.005556
  0.107451  0.107451  0.044315      0.005556
  0.107451  0.107451  0.053177      0.005556
  0.107451  0.107451  0.062040      0.005556
  0.107451  0.107451  0.070903      0.005556
  0.107451  0.107451  0.079766      0.005556
  0.107451  0.107451  0.088629      0.005556
  0.107451  0.107451  0.097492      0.005556
  0.107451  0.107451  0.106355      0.005556
  0.107451  0.107451  0.115218      0.005556
  0.107451  0.107451  0.124081      0.005556
  0.107451  0.107451  0.132944      0.005556
  0.107451  0.107451  0.141807      0.005556
  0.107451  0.107451  0.150670      0.005556
  0.107451  0.107451  0.159532      0.005556
  0.107451  0.107451  0.168395      0.005556



--------------------------------------------------------------------------------------------------------




 Dimension of arrays:
   k-points           NKPTS =    180   k-points in BZ     NKDIM =    180   number of bands    NBANDS=     40
   number of dos      NEDOS =    301   number of ions     NIONS =      6
   non local maximal  LDIM  =      6   non local SUM 2l+1 LMDIM =     18
   total plane-waves  NPLWV =  31104
   max r-space proj   IRMAX =      1   max aug-charges    IRDMAX= 150445
   dimension x,y,z NGX =    36 NGY =   36 NGZ =   24
   dimension x,y,z NGXF=    72 NGYF=   72 NGZF=   48
   support grid    NGXF=   144 NGYF=  144 NGZF=   96
   ions per type =               2   4
   NGX,Y,Z   is equivalent  to a cutoff of  12.86, 12.86, 13.44 a.u.
   NGXF,Y,Z  is equivalent  to a cutoff of  25.72, 25.72, 26.88 a.u.

 SYSTEM =  unknown system                          
 POSCAR =  Ti2 O4                                  

 Startparameter for this run:
   NWRITE =      2    write-flag & timer
   PREC   = accura    normal or accurate (medium, high low for compatibility)
   ISTART =      1    job   : 0-new  1-cont  2-samecut
   ICHARG =     11    charge: 1-file 2-atom 10-const
   ISPIN  =      2    spin polarized calculation?
   LNONCOLLINEAR =      F non collinear calculations
   LSORBIT =      F    spin-orbit coupling
   INIWAV =      1    electr: 0-lowe 1-rand  2-diag
   LASPH  =      F    aspherical Exc in radial PAW
   METAGGA=      F    non-selfconsistent MetaGGA calc.

 Electronic Relaxation 1
   ENCUT  =  520.0 eV  38.22 Ry    6.18 a.u.   8.65  8.65  5.52*2*pi/ulx,y,z
   ENINI  =  520.0     initial cutoff
   ENAUG  =  605.4 eV  augmentation charge cutoff
   NELM   =     90;   NELMIN=  6; NELMDL=  0     # of ELM steps 
   EDIFF  = 0.1E-07   stopping-criterion for ELM
   LREAL  =      F    real-space projection
   NLSPLINE    = F    spline interpolate recip. space projectors
   LCOMPAT=      F    compatible to vasp.4.4
   GGA_COMPAT  = T    GGA compatible to vasp.4.4-vasp.4.6
   LMAXPAW     = -100 max onsite density
   LMAXMIX     =    4 max onsite mixed and CHGCAR
   VOSKOWN=      0    Vosko Wilk Nusair interpolation
   ROPT   =    0.00000   0.00000
 Ionic relaxation
   EDIFFG = -.2E-01   stopping-criterion for IOM
   NSW    =      0    number of steps for IOM
   NBLOCK =      1;   KBLOCK =      1    inner block; outer block 
   IBRION =     -1    ionic relax: 0-MD 1-quasi-New 2-CG
   NFREE  =      0    steps in history (QN), initial steepest desc. (CG)
   ISIF   =      2    stress and relaxation
   IWAVPR =     10    prediction:  0-non 1-charg 2-wave 3-comb
   ISYM   =      2    0-nonsym 1-usesym 2-fastsym
   LCORR  =      T    Harris-Foulkes like correction to forces

   POTIM  = 0.5000    time-step for ionic-motion
   TEIN   =    0.0    initial temperature
   TEBEG  =    0.0;   TEEND  =   0.0 temperature during run
   SMASS  =  -3.00    Nose mass-parameter (am)
   estimated Nose-frequenzy (Omega)   =  0.10E-29 period in steps = 0.13E+47 mass=  -0.495E-27a.u.
   SCALEE = 1.0000    scale energy and forces
   NPACO  =    256;   APACO  = 16.0  distance and # of slots for P.C.
   PSTRESS=    0.0 pullay stress

  Mass of Ions in am
   POMASS =  47.88 16.00
  Ionic Valenz
   ZVAL   =  12.00  6.00
  Atomic Wigner-Seitz radii
   RWIGS  =  -1.00 -1.00
  virtual crystal weights 
   VCA    =   1.00  1.00
   NELECT =      48.0000    total number of electrons
   NUPDOWN=      -1.0000    fix difference up-down

 DOS related values:
   EMIN   =  10.00;   EMAX   =-10.00  energy-range for DOS
   EFERMI =   0.00
   ISMEAR =     0;   SIGMA  =   0.05  broadening in eV -4-tet -1-fermi 0-gaus

 Electronic relaxation 2 (details)
   IALGO  =     38    algorithm
   LDIAG  =      T    sub-space diagonalisation (order eigenvalues)
   LSUBROT=      F    optimize rotation matrix (better conditioning)
   TURBO    =      0    0=normal 1=particle mesh
   IRESTART =      0    0=no restart 2=restart with 2 vectors
   NREBOOT  =      0    no. of reboots
   NMIN     =      0    reboot dimension
   EREF     =   0.00    reference energy to select bands
   IMIX   =      4    mixing-type and parameters
     AMIX     =   0.40;   BMIX     =  1.00
     AMIX_MAG =   1.60;   BMIX_MAG =  1.00
     AMIN     =   0.10
     WC   =   100.;   INIMIX=   1;  MIXPRE=   1;  MAXMIX= -45

 Intra band minimization:
   WEIMIN = 0.0000     energy-eigenvalue tresh-hold
   EBREAK =  0.63E-10  absolut break condition
   DEPER  =   0.30     relativ break condition  

   TIME   =   0.40     timestep for ELM

  volume/ion in A,a.u.               =      10.72        72.31
  Fermi-wavevector in a.u.,A,eV,Ry     =   1.485148  2.806522 30.009876  2.205664
  Thomas-Fermi vector in A             =   2.598596

 Write flags
   LWAVE        =      T    write WAVECAR
   LDOWNSAMPLE  =      F    k-point downsampling of WAVECAR
   LCHARG       =      T    write CHGCAR
   LVTOT        =      F    write LOCPOT, total local potential
   LVHAR        =      F    write LOCPOT, Hartree potential only
   LELF         =      F    write electronic localiz. function (ELF)
   LORBIT       =     11    0 simple, 1 ext, 2 COOP (PROOUT), +10 PAW based schemes


 Dipole corrections
   LMONO  =      F    monopole corrections only (constant potential shift)
   LDIPOL =      F    correct potential (dipole corrections)
   IDIPOL =      0    1-x, 2-y, 3-z, 4-all directions 
   EPSILON=  1.0000000 bulk dielectric constant

 LDA+U is selected, type is set to LDAUTYPE =  2
   angular momentum for each species LDAUL =     2   -1
   U (eV)           for each species LDAUU =   4.5  0.0
   J (eV)           for each species LDAUJ =   0.0  0.0
 Exchange correlation treatment:
   GGA     =    --    GGA type
   LEXCH   =     8    internal setting for exchange type
   VOSKOWN=      0    Vosko Wilk Nusair interpolation
   LHFCALC =     F    Hartree Fock is set to
   LHFONE  =     F    Hartree Fock one center treatment
   AEXX    =    0.0000 exact exchange contribution

 Linear response parameters
   LEPSILON=     F    determine dielectric tensor
   LRPA    =     F    only Hartree local field effects (RPA)
   LNABLA  =     F    use nabla operator in PAW spheres
   LVEL    =     F    velocity operator in full k-point grid
   LINTERFAST=   F  fast interpolation
   KINTER  =     0    interpolate to denser k-point grid
   CSHIFT  =0.1000    complex shift for real part using Kramers Kronig
   OMEGAMAX=  -1.0    maximum frequency
   DEG_THRESHOLD= 0.2000000E-02 threshold for treating states as degnerate
   RTIME   =   -0.100 relaxation time in fs
  (WPLASMAI=    0.000 imaginary part of plasma frequency in eV, 0.658/RTIME)
   DFIELD  = 0.0000000 0.0000000 0.0000000 field for delta impulse in time

 Orbital magnetization related:
   ORBITALMAG=     F  switch on orbital magnetization
   LCHIMAG   =     F  perturbation theory with respect to B field
   DQ        =  0.001000  dq finite difference perturbation B field
   LLRAUG    =     F  two centre corrections for induced B field



--------------------------------------------------------------------------------------------------------


 Static calculation
 charge density and potential remain constant during run
 spin polarized calculation
 Variant of blocked Davidson
 Davidson routine will perform the subspace rotation
 perform sub-space diagonalisation
    after iterative eigenvector-optimisation
 no mixing
 using additional bands           16
 reciprocal scheme for non local part
 use partial core corrections
 calculate Harris-corrections to forces   (improved forces if not selfconsistent)
 use gradient corrections 
 WARNING: stress and forces are not correct
  (second derivative of E(xc) not defined)
 use of overlap-Matrix (Vanderbilt PP)
 Gauss-broadening in eV      SIGMA  =   0.05


--------------------------------------------------------------------------------------------------------


  energy-cutoff  :      520.00
  volume of cell :       64.29
      direct lattice vectors                 reciprocal lattice vectors
     4.653272152  0.000000000  0.000000000     0.214902539  0.000000000  0.000000000
     0.000000000  4.653272152  0.000000000     0.000000000  0.214902539  0.000000000
     0.000000000  0.000000000  2.969202995     0.000000000  0.000000000  0.336790715

  length of vectors
     4.653272152  4.653272152  2.969202995     0.214902539  0.214902539  0.336790715



 old parameters found on file WAVECAR:
  energy-cutoff  :      520.00
  volume of cell :       64.29
      direct lattice vectors                 reciprocal lattice vectors
     4.653272152  0.000000000  0.000000000     0.214902539  0.000000000  0.000000000
     0.000000000  4.653272152  0.000000000     0.000000000  0.214902539  0.000000000
     0.000000000  0.000000000  2.969202995     0.000000000  0.000000000  0.336790715

  length of vectors


 k-points in units of 2pi/SCALE and weight: K-Path Generated by VASPKIT.            
   0.00000000  0.00000000  0.00000000       0.006
   0.00000000  0.00565533  0.00000000       0.006
   0.00000000  0.01131066  0.00000000       0.006
   0.00000000  0.01696599  0.00000000       0.006
   0.00000000  0.02262132  0.00000000       0.006
   0.00000000  0.02827665  0.00000000       0.006
   0.00000000  0.03393198  0.00000000       0.006
   0.00000000  0.03958731  0.00000000       0.006
   0.00000000  0.04524264  0.00000000       0.006
   0.00000000  0.05089797  0.00000000       0.006
   0.00000000  0.05655330  0.00000000       0.006
   0.00000000  0.06220863  0.00000000       0.006
   0.00000000  0.06786396  0.00000000       0.006
   0.00000000  0.07351929  0.00000000       0.006
   0.00000000  0.07917462  0.00000000       0.006
   0.00000000  0.08482995  0.00000000       0.006
   0.00000000  0.09048528  0.00000000       0.006
   0.00000000  0.09614061  0.00000000       0.006
   0.00000000  0.10179594  0.00000000       0.006
   0.00000000  0.10745127  0.00000000       0.006
   0.00000000  0.10745127  0.00000000       0.006
   0.00565533  0.10745127  0.00000000       0.006
   0.01131066  0.10745127  0.00000000       0.006
   0.01696599  0.10745127  0.00000000       0.006
   0.02262132  0.10745127  0.00000000       0.006
   0.02827665  0.10745127  0.00000000       0.006
   0.03393198  0.10745127  0.00000000       0.006
   0.03958731  0.10745127  0.00000000       0.006
   0.04524264  0.10745127  0.00000000       0.006
   0.05089797  0.10745127  0.00000000       0.006
   0.05655330  0.10745127  0.00000000       0.006
   0.06220863  0.10745127  0.00000000       0.006
   0.06786396  0.10745127  0.00000000       0.006
   0.07351929  0.10745127  0.00000000       0.006
   0.07917462  0.10745127  0.00000000       0.006
   0.08482995  0.10745127  0.00000000       0.006
   0.09048528  0.10745127  0.00000000       0.006
   0.09614061  0.10745127  0.00000000       0.006
   0.10179594  0.10745127  0.00000000       0.006
   0.10745127  0.10745127  0.00000000       0.006
   0.10745127  0.10745127  0.00000000       0.006
   0.10179594  0.10179594  0.00000000       0.006
   0.09614061  0.09614061  0.00000000       0.006
   0.09048528  0.09048528  0.00000000       0.006
   0.08482995  0.08482995  0.00000000       0.006
   0.07917462  0.07917462  0.00000000       0.006
   0.07351929  0.07351929  0.00000000       0.006
   0.06786396  0.06786396  0.00000000       0.006
   0.06220863  0.06220863  0.00000000       0.006
   0.05655330  0.05655330  0.00000000       0.006
   0.05089797  0.05089797  0.00000000       0.006
   0.04524264  0.04524264  0.00000000       0.006
   0.03958731  0.03958731  0.00000000       0.006
   0.03393198  0.03393198  0.00000000       0.006
   0.02827665  0.02827665  0.00000000       0.006
   0.02262132  0.02262132  0.00000000       0.006
   0.01696599  0.01696599  0.00000000       0.006
   0.01131066  0.01131066  0.00000000       0.006
   0.00565533  0.00565533  0.00000000       0.006
   0.00000000  0.00000000  0.00000000       0.006
   0.00000000  0.00000000  0.00000000       0.006
   0.00000000  0.00000000  0.00886291       0.006
   0.00000000  0.00000000  0.01772583       0.006
   0.00000000  0.00000000  0.02658874       0.006
   0.00000000  0.00000000  0.03545165       0.006
   0.00000000  0.00000000  0.04431457       0.006
   0.00000000  0.00000000  0.05317748       0.006
   0.00000000  0.00000000  0.06204039       0.006
   0.00000000  0.00000000  0.07090331       0.006
   0.00000000  0.00000000  0.07976622       0.006
   0.00000000  0.00000000  0.08862914       0.006
   0.00000000  0.00000000  0.09749205       0.006
   0.00000000  0.00000000  0.10635496       0.006
   0.00000000  0.00000000  0.11521788       0.006
   0.00000000  0.00000000  0.12408079       0.006
   0.00000000  0.00000000  0.13294370       0.006
   0.00000000  0.00000000  0.14180662       0.006
   0.00000000  0.00000000  0.15066953       0.006
   0.00000000  0.00000000  0.15953244       0.006
   0.00000000  0.00000000  0.16839536       0.006
   0.00000000  0.00000000  0.16839536       0.006
   0.00000000  0.00565533  0.16839536       0.006
   0.00000000  0.01131066  0.16839536       0.006
   0.00000000  0.01696599  0.16839536       0.006
   0.00000000  0.02262132  0.16839536       0.006
   0.00000000  0.02827665  0.16839536       0.006
   0.00000000  0.03393198  0.16839536       0.006
   0.00000000  0.03958731  0.16839536       0.006
   0.00000000  0.04524264  0.16839536       0.006
   0.00000000  0.05089797  0.16839536       0.006
   0.00000000  0.05655330  0.16839536       0.006
   0.00000000  0.06220863  0.16839536       0.006
   0.00000000  0.06786396  0.16839536       0.006
   0.00000000  0.07351929  0.16839536       0.006
   0.00000000  0.07917462  0.16839536       0.006
   0.00000000  0.08482995  0.16839536       0.006
   0.00000000  0.09048528  0.16839536       0.006
   0.00000000  0.09614061  0.16839536       0.006
   0.00000000  0.10179594  0.16839536       0.006
   0.00000000  0.10745127  0.16839536       0.006
   0.00000000  0.10745127  0.16839536       0.006
   0.00565533  0.10745127  0.16839536       0.006
   0.01131066  0.10745127  0.16839536       0.006
   0.01696599  0.10745127  0.16839536       0.006
   0.02262132  0.10745127  0.16839536       0.006
   0.02827665  0.10745127  0.16839536       0.006
   0.03393198  0.10745127  0.16839536       0.006
   0.03958731  0.10745127  0.16839536       0.006
   0.04524264  0.10745127  0.16839536       0.006
   0.05089797  0.10745127  0.16839536       0.006
   0.05655330  0.10745127  0.16839536       0.006
   0.06220863  0.10745127  0.16839536       0.006
   0.06786396  0.10745127  0.16839536       0.006
   0.07351929  0.10745127  0.16839536       0.006
   0.07917462  0.10745127  0.16839536       0.006
   0.08482995  0.10745127  0.16839536       0.006
   0.09048528  0.10745127  0.16839536       0.006
   0.09614061  0.10745127  0.16839536       0.006
   0.10179594  0.10745127  0.16839536       0.006
   0.10745127  0.10745127  0.16839536       0.006
   0.10745127  0.10745127  0.16839536       0.006
   0.10179594  0.10179594  0.16839536       0.006
   0.09614061  0.09614061  0.16839536       0.006
   0.09048528  0.09048528  0.16839536       0.006
   0.08482995  0.08482995  0.16839536       0.006
   0.07917462  0.07917462  0.16839536       0.006
   0.07351929  0.07351929  0.16839536       0.006
   0.06786396  0.06786396  0.16839536       0.006
   0.06220863  0.06220863  0.16839536       0.006
   0.05655330  0.05655330  0.16839536       0.006
   0.05089797  0.05089797  0.16839536       0.006
   0.04524264  0.04524264  0.16839536       0.006
   0.03958731  0.03958731  0.16839536       0.006
   0.03393198  0.03393198  0.16839536       0.006
   0.02827665  0.02827665  0.16839536       0.006
   0.02262132  0.02262132  0.16839536       0.006
   0.01696599  0.01696599  0.16839536       0.006
   0.01131066  0.01131066  0.16839536       0.006
   0.00565533  0.00565533  0.16839536       0.006
   0.00000000  0.00000000  0.16839536       0.006
   0.00000000  0.10745127  0.00000000       0.006
   0.00000000  0.10745127  0.00886291       0.006
   0.00000000  0.10745127  0.01772583       0.006
   0.00000000  0.10745127  0.02658874       0.006
   0.00000000  0.10745127  0.03545165       0.006
   0.00000000  0.10745127  0.04431457       0.006
   0.00000000  0.10745127  0.05317748       0.006
   0.00000000  0.10745127  0.06204039       0.006
   0.00000000  0.10745127  0.07090331       0.006
   0.00000000  0.10745127  0.07976622       0.006
   0.00000000  0.10745127  0.08862914       0.006
   0.00000000  0.10745127  0.09749205       0.006
   0.00000000  0.10745127  0.10635496       0.006
   0.00000000  0.10745127  0.11521788       0.006
   0.00000000  0.10745127  0.12408079       0.006
   0.00000000  0.10745127  0.13294370       0.006
   0.00000000  0.10745127  0.14180662       0.006
   0.00000000  0.10745127  0.15066953       0.006
   0.00000000  0.10745127  0.15953244       0.006
   0.00000000  0.10745127  0.16839536       0.006
   0.10745127  0.10745127  0.00000000       0.006
   0.10745127  0.10745127  0.00886291       0.006
   0.10745127  0.10745127  0.01772583       0.006
   0.10745127  0.10745127  0.02658874       0.006
   0.10745127  0.10745127  0.03545165       0.006
   0.10745127  0.10745127  0.04431457       0.006
   0.10745127  0.10745127  0.05317748       0.006
   0.10745127  0.10745127  0.06204039       0.006
   0.10745127  0.10745127  0.07090331       0.006
   0.10745127  0.10745127  0.07976622       0.006
   0.10745127  0.10745127  0.08862914       0.006
   0.10745127  0.10745127  0.09749205       0.006
   0.10745127  0.10745127  0.10635496       0.006
   0.10745127  0.10745127  0.11521788       0.006
   0.10745127  0.10745127  0.12408079       0.006
   0.10745127  0.10745127  0.13294370       0.006
   0.10745127  0.10745127  0.14180662       0.006
   0.10745127  0.10745127  0.15066953       0.006
   0.10745127  0.10745127  0.15953244       0.006
   0.10745127  0.10745127  0.16839536       0.006

 k-points in reciprocal lattice and weights: K-Path Generated by VASPKIT.            
   0.00000000  0.00000000  0.00000000       0.006
   0.00000000  0.02631579  0.00000000       0.006
   0.00000000  0.05263158  0.00000000       0.006
   0.00000000  0.07894737  0.00000000       0.006
   0.00000000  0.10526316  0.00000000       0.006
   0.00000000  0.13157895  0.00000000       0.006
   0.00000000  0.15789474  0.00000000       0.006
   0.00000000  0.18421053  0.00000000       0.006
   0.00000000  0.21052632  0.00000000       0.006
   0.00000000  0.23684211  0.00000000       0.006
   0.00000000  0.26315789  0.00000000       0.006
   0.00000000  0.28947368  0.00000000       0.006
   0.00000000  0.31578947  0.00000000       0.006
   0.00000000  0.34210526  0.00000000       0.006
   0.00000000  0.36842105  0.00000000       0.006
   0.00000000  0.39473684  0.00000000       0.006
   0.00000000  0.42105263  0.00000000       0.006
   0.00000000  0.44736842  0.00000000       0.006
   0.00000000  0.47368421  0.00000000       0.006
   0.00000000  0.50000000  0.00000000       0.006
   0.00000000  0.50000000  0.00000000       0.006
   0.02631579  0.50000000  0.00000000       0.006
   0.05263158  0.50000000  0.00000000       0.006
   0.07894737  0.50000000  0.00000000       0.006
   0.10526316  0.50000000  0.00000000       0.006
   0.13157895  0.50000000  0.00000000       0.006
   0.15789474  0.50000000  0.00000000       0.006
   0.18421053  0.50000000  0.00000000       0.006
   0.21052632  0.50000000  0.00000000       0.006
   0.23684211  0.50000000  0.00000000       0.006
   0.26315789  0.50000000  0.00000000       0.006
   0.28947368  0.50000000  0.00000000       0.006
   0.31578947  0.50000000  0.00000000       0.006
   0.34210526  0.50000000  0.00000000       0.006
   0.36842105  0.50000000  0.00000000       0.006
   0.39473684  0.50000000  0.00000000       0.006
   0.42105263  0.50000000  0.00000000       0.006
   0.44736842  0.50000000  0.00000000       0.006
   0.47368421  0.50000000  0.00000000       0.006
   0.50000000  0.50000000  0.00000000       0.006
   0.50000000  0.50000000  0.00000000       0.006
   0.47368421  0.47368421  0.00000000       0.006
   0.44736842  0.44736842  0.00000000       0.006
   0.42105263  0.42105263  0.00000000       0.006
   0.39473684  0.39473684  0.00000000       0.006
   0.36842105  0.36842105  0.00000000       0.006
   0.34210526  0.34210526  0.00000000       0.006
   0.31578947  0.31578947  0.00000000       0.006
   0.28947368  0.28947368  0.00000000       0.006
   0.26315789  0.26315789  0.00000000       0.006
   0.23684211  0.23684211  0.00000000       0.006
   0.21052632  0.21052632  0.00000000       0.006
   0.18421053  0.18421053  0.00000000       0.006
   0.15789474  0.15789474  0.00000000       0.006
   0.13157895  0.13157895  0.00000000       0.006
   0.10526316  0.10526316  0.00000000       0.006
   0.07894737  0.07894737  0.00000000       0.006
   0.05263158  0.05263158  0.00000000       0.006
   0.02631579  0.02631579  0.00000000       0.006
   0.00000000  0.00000000  0.00000000       0.006
   0.00000000  0.00000000  0.00000000       0.006
   0.00000000  0.00000000  0.02631579       0.006
   0.00000000  0.00000000  0.05263158       0.006
   0.00000000  0.00000000  0.07894737       0.006
   0.00000000  0.00000000  0.10526316       0.006
   0.00000000  0.00000000  0.13157895       0.006
   0.00000000  0.00000000  0.15789474       0.006
   0.00000000  0.00000000  0.18421053       0.006
   0.00000000  0.00000000  0.21052632       0.006
   0.00000000  0.00000000  0.23684211       0.006
   0.00000000  0.00000000  0.26315789       0.006
   0.00000000  0.00000000  0.28947368       0.006
   0.00000000  0.00000000  0.31578947       0.006
   0.00000000  0.00000000  0.34210526       0.006
   0.00000000  0.00000000  0.36842105       0.006
   0.00000000  0.00000000  0.39473684       0.006
   0.00000000  0.00000000  0.42105263       0.006
   0.00000000  0.00000000  0.44736842       0.006
   0.00000000  0.00000000  0.47368421       0.006
   0.00000000  0.00000000  0.50000000       0.006
   0.00000000  0.00000000  0.50000000       0.006
   0.00000000  0.02631579  0.50000000       0.006
   0.00000000  0.05263158  0.50000000       0.006
   0.00000000  0.07894737  0.50000000       0.006
   0.00000000  0.10526316  0.50000000       0.006
   0.00000000  0.13157895  0.50000000       0.006
   0.00000000  0.15789474  0.50000000       0.006
   0.00000000  0.18421053  0.50000000       0.006
   0.00000000  0.21052632  0.50000000       0.006
   0.00000000  0.23684211  0.50000000       0.006
   0.00000000  0.26315789  0.50000000       0.006
   0.00000000  0.28947368  0.50000000       0.006
   0.00000000  0.31578947  0.50000000       0.006
   0.00000000  0.34210526  0.50000000       0.006
   0.00000000  0.36842105  0.50000000       0.006
   0.00000000  0.39473684  0.50000000       0.006
   0.00000000  0.42105263  0.50000000       0.006
   0.00000000  0.44736842  0.50000000       0.006
   0.00000000  0.47368421  0.50000000       0.006
   0.00000000  0.50000000  0.50000000       0.006
   0.00000000  0.50000000  0.50000000       0.006
   0.02631579  0.50000000  0.50000000       0.006
   0.05263158  0.50000000  0.50000000       0.006
   0.07894737  0.50000000  0.50000000       0.006
   0.10526316  0.50000000  0.50000000       0.006
   0.13157895  0.50000000  0.50000000       0.006
   0.15789474  0.50000000  0.50000000       0.006
   0.18421053  0.50000000  0.50000000       0.006
   0.21052632  0.50000000  0.50000000       0.006
   0.23684211  0.50000000  0.50000000       0.006
   0.26315789  0.50000000  0.50000000       0.006
   0.28947368  0.50000000  0.50000000       0.006
   0.31578947  0.50000000  0.50000000       0.006
   0.34210526  0.50000000  0.50000000       0.006
   0.36842105  0.50000000  0.50000000       0.006
   0.39473684  0.50000000  0.50000000       0.006
   0.42105263  0.50000000  0.50000000       0.006
   0.44736842  0.50000000  0.50000000       0.006
   0.47368421  0.50000000  0.50000000       0.006
   0.50000000  0.50000000  0.50000000       0.006
   0.50000000  0.50000000  0.50000000       0.006
   0.47368421  0.47368421  0.50000000       0.006
   0.44736842  0.44736842  0.50000000       0.006
   0.42105263  0.42105263  0.50000000       0.006
   0.39473684  0.39473684  0.50000000       0.006
   0.36842105  0.36842105  0.50000000       0.006
   0.34210526  0.34210526  0.50000000       0.006
   0.31578947  0.31578947  0.50000000       0.006
   0.28947368  0.28947368  0.50000000       0.006
   0.26315789  0.26315789  0.50000000       0.006
   0.23684211  0.23684211  0.50000000       0.006
   0.21052632  0.21052632  0.50000000       0.006
   0.18421053  0.18421053  0.50000000       0.006
   0.15789474  0.15789474  0.50000000       0.006
   0.13157895  0.13157895  0.50000000       0.006
   0.10526316  0.10526316  0.50000000       0.006
   0.07894737  0.07894737  0.50000000       0.006
   0.05263158  0.05263158  0.50000000       0.006
   0.02631579  0.02631579  0.50000000       0.006
   0.00000000  0.00000000  0.50000000       0.006
   0.00000000  0.50000000  0.00000000       0.006
   0.00000000  0.50000000  0.02631579       0.006
   0.00000000  0.50000000  0.05263158       0.006
   0.00000000  0.50000000  0.07894737       0.006
   0.00000000  0.50000000  0.10526316       0.006
   0.00000000  0.50000000  0.13157895       0.006
   0.00000000  0.50000000  0.15789474       0.006
   0.00000000  0.50000000  0.18421053       0.006
   0.00000000  0.50000000  0.21052632       0.006
   0.00000000  0.50000000  0.23684211       0.006
   0.00000000  0.50000000  0.26315789       0.006
   0.00000000  0.50000000  0.28947368       0.006
   0.00000000  0.50000000  0.31578947       0.006
   0.00000000  0.50000000  0.34210526       0.006
   0.00000000  0.50000000  0.36842105       0.006
   0.00000000  0.50000000  0.39473684       0.006
   0.00000000  0.50000000  0.42105263       0.006
   0.00000000  0.50000000  0.44736842       0.006
   0.00000000  0.50000000  0.47368421       0.006
   0.00000000  0.50000000  0.50000000       0.006
   0.50000000  0.50000000  0.00000000       0.006
   0.50000000  0.50000000  0.02631579       0.006
   0.50000000  0.50000000  0.05263158       0.006
   0.50000000  0.50000000  0.07894737       0.006
   0.50000000  0.50000000  0.10526316       0.006
   0.50000000  0.50000000  0.13157895       0.006
   0.50000000  0.50000000  0.15789474       0.006
   0.50000000  0.50000000  0.18421053       0.006
   0.50000000  0.50000000  0.21052632       0.006
   0.50000000  0.50000000  0.23684211       0.006
   0.50000000  0.50000000  0.26315789       0.006
   0.50000000  0.50000000  0.28947368       0.006
   0.50000000  0.50000000  0.31578947       0.006
   0.50000000  0.50000000  0.34210526       0.006
   0.50000000  0.50000000  0.36842105       0.006
   0.50000000  0.50000000  0.39473684       0.006
   0.50000000  0.50000000  0.42105263       0.006
   0.50000000  0.50000000  0.44736842       0.006
   0.50000000  0.50000000  0.47368421       0.006
   0.50000000  0.50000000  0.50000000       0.006

 position of ions in fractional coordinates (direct lattice) 
   0.50000000  0.50000000  0.50000000
   0.00000000  0.00000000  0.00000000
   0.19542000  0.80457997  0.50000000
   0.80457997  0.19542000  0.50000000
   0.30458000  0.30458000  0.00000000
   0.69542003  0.69542003  0.00000000

 position of ions in cartesian coordinates  (Angst):
   2.32663608  2.32663608  1.48460150
   0.00000000  0.00000000  0.00000000
   0.90934243  3.74392958  1.48460150
   3.74392958  0.90934243  1.48460150
   1.41729365  1.41729365  0.00000000
   3.23597864  3.23597864  0.00000000



--------------------------------------------------------------------------------------------------------


 k-point   1 :   0.0000 0.0000 0.0000  plane waves:    1763
 k-point   2 :   0.0000 0.0263 0.0000  plane waves:    1751
 k-point   3 :   0.0000 0.0526 0.0000  plane waves:    1753
 k-point   4 :   0.0000 0.0789 0.0000  plane waves:    1745
 k-point   5 :   0.0000 0.1053 0.0000  plane waves:    1743
 k-point   6 :   0.0000 0.1316 0.0000  plane waves:    1745
 k-point   7 :   0.0000 0.1579 0.0000  plane waves:    1741
 k-point   8 :   0.0000 0.1842 0.0000  plane waves:    1745
 k-point   9 :   0.0000 0.2105 0.0000  plane waves:    1745
 k-point  10 :   0.0000 0.2368 0.0000  plane waves:    1743
 k-point  11 :   0.0000 0.2632 0.0000  plane waves:    1737
 k-point  12 :   0.0000 0.2895 0.0000  plane waves:    1729
 k-point  13 :   0.0000 0.3158 0.0000  plane waves:    1727
 k-point  14 :   0.0000 0.3421 0.0000  plane waves:    1727
 k-point  15 :   0.0000 0.3684 0.0000  plane waves:    1728
 k-point  16 :   0.0000 0.3947 0.0000  plane waves:    1732
 k-point  17 :   0.0000 0.4211 0.0000  plane waves:    1732
 k-point  18 :   0.0000 0.4474 0.0000  plane waves:    1728
 k-point  19 :   0.0000 0.4737 0.0000  plane waves:    1728
 k-point  20 :   0.0000 0.5000 0.0000  plane waves:    1730
 k-point  21 :   0.0000 0.5000 0.0000  plane waves:    1730
 k-point  22 :   0.0263 0.5000 0.0000  plane waves:    1726
 k-point  23 :   0.0526 0.5000 0.0000  plane waves:    1726
 k-point  24 :   0.0789 0.5000 0.0000  plane waves:    1734
 k-point  25 :   0.1053 0.5000 0.0000  plane waves:    1740
 k-point  26 :   0.1316 0.5000 0.0000  plane waves:    1736
 k-point  27 :   0.1579 0.5000 0.0000  plane waves:    1732
 k-point  28 :   0.1842 0.5000 0.0000  plane waves:    1740
 k-point  29 :   0.2105 0.5000 0.0000  plane waves:    1740
 k-point  30 :   0.2368 0.5000 0.0000  plane waves:    1744
 k-point  31 :   0.2632 0.5000 0.0000  plane waves:    1744
 k-point  32 :   0.2895 0.5000 0.0000  plane waves:    1738
 k-point  33 :   0.3158 0.5000 0.0000  plane waves:    1746
 k-point  34 :   0.3421 0.5000 0.0000  plane waves:    1752
 k-point  35 :   0.3684 0.5000 0.0000  plane waves:    1750
 k-point  36 :   0.3947 0.5000 0.0000  plane waves:    1742
 k-point  37 :   0.4211 0.5000 0.0000  plane waves:    1738
 k-point  38 :   0.4474 0.5000 0.0000  plane waves:    1738
 k-point  39 :   0.4737 0.5000 0.0000  plane waves:    1738
 k-point  40 :   0.5000 0.5000 0.0000  plane waves:    1728
 k-point  41 :   0.5000 0.5000 0.0000  plane waves:    1728
 k-point  42 :   0.4737 0.4737 0.0000  plane waves:    1736
 k-point  43 :   0.4474 0.4474 0.0000  plane waves:    1740
 k-point  44 :   0.4211 0.4211 0.0000  plane waves:    1746
 k-point  45 :   0.3947 0.3947 0.0000  plane waves:    1746
 k-point  46 :   0.3684 0.3684 0.0000  plane waves:    1736
 k-point  47 :   0.3421 0.3421 0.0000  plane waves:    1734
 k-point  48 :   0.3158 0.3158 0.0000  plane waves:    1744
 k-point  49 :   0.2895 0.2895 0.0000  plane waves:    1738
 k-point  50 :   0.2632 0.2632 0.0000  plane waves:    1730
 k-point  51 :   0.2368 0.2368 0.0000  plane waves:    1730
 k-point  52 :   0.2105 0.2105 0.0000  plane waves:    1738
 k-point  53 :   0.1842 0.1842 0.0000  plane waves:    1744
 k-point  54 :   0.1579 0.1579 0.0000  plane waves:    1758
 k-point  55 :   0.1316 0.1316 0.0000  plane waves:    1752
 k-point  56 :   0.1053 0.1053 0.0000  plane waves:    1753
 k-point  57 :   0.0789 0.0789 0.0000  plane waves:    1755
 k-point  58 :   0.0526 0.0526 0.0000  plane waves:    1751
 k-point  59 :   0.0263 0.0263 0.0000  plane waves:    1753
 k-point  60 :   0.0000 0.0000 0.0000  plane waves:    1763
 k-point  61 :   0.0000 0.0000 0.0000  plane waves:    1763
 k-point  62 :   0.0000 0.0000 0.0263  plane waves:    1751
 k-point  63 :   0.0000 0.0000 0.0526  plane waves:    1743
 k-point  64 :   0.0000 0.0000 0.0789  plane waves:    1739
 k-point  65 :   0.0000 0.0000 0.1053  plane waves:    1739
 k-point  66 :   0.0000 0.0000 0.1316  plane waves:    1747
 k-point  67 :   0.0000 0.0000 0.1579  plane waves:    1747
 k-point  68 :   0.0000 0.0000 0.1842  plane waves:    1727
 k-point  69 :   0.0000 0.0000 0.2105  plane waves:    1731
 k-point  70 :   0.0000 0.0000 0.2368  plane waves:    1735
 k-point  71 :   0.0000 0.0000 0.2632  plane waves:    1731
 k-point  72 :   0.0000 0.0000 0.2895  plane waves:    1747
 k-point  73 :   0.0000 0.0000 0.3158  plane waves:    1747
 k-point  74 :   0.0000 0.0000 0.3421  plane waves:    1739
 k-point  75 :   0.0000 0.0000 0.3684  plane waves:    1739
 k-point  76 :   0.0000 0.0000 0.3947  plane waves:    1735
 k-point  77 :   0.0000 0.0000 0.4211  plane waves:    1743
 k-point  78 :   0.0000 0.0000 0.4474  plane waves:    1739
 k-point  79 :   0.0000 0.0000 0.4737  plane waves:    1731
 k-point  80 :   0.0000 0.0000 0.5000  plane waves:    1732
 k-point  81 :   0.0000 0.0000 0.5000  plane waves:    1732
 k-point  82 :   0.0000 0.0263 0.5000  plane waves:    1718
 k-point  83 :   0.0000 0.0526 0.5000  plane waves:    1722
 k-point  84 :   0.0000 0.0789 0.5000  plane waves:    1718
 k-point  85 :   0.0000 0.1053 0.5000  plane waves:    1718
 k-point  86 :   0.0000 0.1316 0.5000  plane waves:    1718
 k-point  87 :   0.0000 0.1579 0.5000  plane waves:    1722
 k-point  88 :   0.0000 0.1842 0.5000  plane waves:    1718
 k-point  89 :   0.0000 0.2105 0.5000  plane waves:    1714
 k-point  90 :   0.0000 0.2368 0.5000  plane waves:    1722
 k-point  91 :   0.0000 0.2632 0.5000  plane waves:    1720
 k-point  92 :   0.0000 0.2895 0.5000  plane waves:    1718
 k-point  93 :   0.0000 0.3158 0.5000  plane waves:    1712
 k-point  94 :   0.0000 0.3421 0.5000  plane waves:    1714
 k-point  95 :   0.0000 0.3684 0.5000  plane waves:    1714
 k-point  96 :   0.0000 0.3947 0.5000  plane waves:    1712
 k-point  97 :   0.0000 0.4211 0.5000  plane waves:    1720
 k-point  98 :   0.0000 0.4474 0.5000  plane waves:    1720
 k-point  99 :   0.0000 0.4737 0.5000  plane waves:    1716
 k-point 100 :   0.0000 0.5000 0.5000  plane waves:    1720
 k-point 101 :   0.0000 0.5000 0.5000  plane waves:    1720
 k-point 102 :   0.0263 0.5000 0.5000  plane waves:    1720
 k-point 103 :   0.0526 0.5000 0.5000  plane waves:    1724
 k-point 104 :   0.0789 0.5000 0.5000  plane waves:    1728
 k-point 105 :   0.1053 0.5000 0.5000  plane waves:    1728
 k-point 106 :   0.1316 0.5000 0.5000  plane waves:    1736
 k-point 107 :   0.1579 0.5000 0.5000  plane waves:    1732
 k-point 108 :   0.1842 0.5000 0.5000  plane waves:    1732
 k-point 109 :   0.2105 0.5000 0.5000  plane waves:    1724
 k-point 110 :   0.2368 0.5000 0.5000  plane waves:    1728
 k-point 111 :   0.2632 0.5000 0.5000  plane waves:    1716
 k-point 112 :   0.2895 0.5000 0.5000  plane waves:    1712
 k-point 113 :   0.3158 0.5000 0.5000  plane waves:    1712
 k-point 114 :   0.3421 0.5000 0.5000  plane waves:    1716
 k-point 115 :   0.3684 0.5000 0.5000  plane waves:    1716
 k-point 116 :   0.3947 0.5000 0.5000  plane waves:    1720
 k-point 117 :   0.4211 0.5000 0.5000  plane waves:    1724
 k-point 118 :   0.4474 0.5000 0.5000  plane waves:    1736
 k-point 119 :   0.4737 0.5000 0.5000  plane waves:    1736
 k-point 120 :   0.5000 0.5000 0.5000  plane waves:    1736
 k-point 121 :   0.5000 0.5000 0.5000  plane waves:    1736
 k-point 122 :   0.4737 0.4737 0.5000  plane waves:    1740
 k-point 123 :   0.4474 0.4474 0.5000  plane waves:    1730
 k-point 124 :   0.4211 0.4211 0.5000  plane waves:    1722
 k-point 125 :   0.3947 0.3947 0.5000  plane waves:    1718
 k-point 126 :   0.3684 0.3684 0.5000  plane waves:    1710
 k-point 127 :   0.3421 0.3421 0.5000  plane waves:    1722
 k-point 128 :   0.3158 0.3158 0.5000  plane waves:    1710
 k-point 129 :   0.2895 0.2895 0.5000  plane waves:    1714
 k-point 130 :   0.2632 0.2632 0.5000  plane waves:    1712
 k-point 131 :   0.2368 0.2368 0.5000  plane waves:    1704
 k-point 132 :   0.2105 0.2105 0.5000  plane waves:    1708
 k-point 133 :   0.1842 0.1842 0.5000  plane waves:    1712
 k-point 134 :   0.1579 0.1579 0.5000  plane waves:    1712
 k-point 135 :   0.1316 0.1316 0.5000  plane waves:    1712
 k-point 136 :   0.1053 0.1053 0.5000  plane waves:    1714
 k-point 137 :   0.0789 0.0789 0.5000  plane waves:    1716
 k-point 138 :   0.0526 0.0526 0.5000  plane waves:    1728
 k-point 139 :   0.0263 0.0263 0.5000  plane waves:    1724
 k-point 140 :   0.0000 0.0000 0.5000  plane waves:    1732
 k-point 141 :   0.0000 0.5000 0.0000  plane waves:    1730
 k-point 142 :   0.0000 0.5000 0.0263  plane waves:    1730
 k-point 143 :   0.0000 0.5000 0.0526  plane waves:    1730
 k-point 144 :   0.0000 0.5000 0.0789  plane waves:    1726
 k-point 145 :   0.0000 0.5000 0.1053  plane waves:    1718
 k-point 146 :   0.0000 0.5000 0.1316  plane waves:    1730
 k-point 147 :   0.0000 0.5000 0.1579  plane waves:    1734
 k-point 148 :   0.0000 0.5000 0.1842  plane waves:    1738
 k-point 149 :   0.0000 0.5000 0.2105  plane waves:    1750
 k-point 150 :   0.0000 0.5000 0.2368  plane waves:    1738
 k-point 151 :   0.0000 0.5000 0.2632  plane waves:    1742
 k-point 152 :   0.0000 0.5000 0.2895  plane waves:    1738
 k-point 153 :   0.0000 0.5000 0.3158  plane waves:    1730
 k-point 154 :   0.0000 0.5000 0.3421  plane waves:    1742
 k-point 155 :   0.0000 0.5000 0.3684  plane waves:    1736
 k-point 156 :   0.0000 0.5000 0.3947  plane waves:    1736
 k-point 157 :   0.0000 0.5000 0.4211  plane waves:    1728
 k-point 158 :   0.0000 0.5000 0.4474  plane waves:    1722
 k-point 159 :   0.0000 0.5000 0.4737  plane waves:    1722
 k-point 160 :   0.0000 0.5000 0.5000  plane waves:    1720
 k-point 161 :   0.5000 0.5000 0.0000  plane waves:    1728
 k-point 162 :   0.5000 0.5000 0.0263  plane waves:    1744
 k-point 163 :   0.5000 0.5000 0.0526  plane waves:    1748
 k-point 164 :   0.5000 0.5000 0.0789  plane waves:    1748
 k-point 165 :   0.5000 0.5000 0.1053  plane waves:    1748
 k-point 166 :   0.5000 0.5000 0.1316  plane waves:    1756
 k-point 167 :   0.5000 0.5000 0.1579  plane waves:    1732
 k-point 168 :   0.5000 0.5000 0.1842  plane waves:    1732
 k-point 169 :   0.5000 0.5000 0.2105  plane waves:    1732
 k-point 170 :   0.5000 0.5000 0.2368  plane waves:    1732
 k-point 171 :   0.5000 0.5000 0.2632  plane waves:    1712
 k-point 172 :   0.5000 0.5000 0.2895  plane waves:    1704
 k-point 173 :   0.5000 0.5000 0.3158  plane waves:    1712
 k-point 174 :   0.5000 0.5000 0.3421  plane waves:    1712
 k-point 175 :   0.5000 0.5000 0.3684  plane waves:    1708
 k-point 176 :   0.5000 0.5000 0.3947  plane waves:    1732
 k-point 177 :   0.5000 0.5000 0.4211  plane waves:    1736
 k-point 178 :   0.5000 0.5000 0.4474  plane waves:    1720
 k-point 179 :   0.5000 0.5000 0.4737  plane waves:    1724
 k-point 180 :   0.5000 0.5000 0.5000  plane waves:    1736

 maximum and minimum number of plane-waves per node :      1763     1704

 maximum number of plane-waves:      1763
 maximum index in each direction: 
   IXMAX=    8   IYMAX=    8   IZMAX=    5
   IXMIN=   -9   IYMIN=   -9   IZMIN=   -6


 serial   3D FFT for wavefunctions
 parallel 3D FFT for charge:
    minimum data exchange during FFTs selected (reduces bandwidth)


 total amount of memory used by VASP MPI-rank0   173297. kBytes
=======================================================================

   base      :      30000. kBytes
   nonl-proj :      91926. kBytes
   fftplans  :       3977. kBytes
   grid      :       4815. kBytes
   one-center:        186. kBytes
   wavefun   :      42393. kBytes

     INWAV:  cpu time    1.1050: real time    1.1050
 initial charge density was supplied:
 number of electron      48.0000001 magnetization       0.0000000
 keeping initial charge density in first step


--------------------------------------------------------------------------------------------------------


 Maximum index for augmentation-charges        16605 (set IRDMAX)


--------------------------------------------------------------------------------------------------------


 First call to EWALD:  gamma=   0.442
 Maximum number of real-space cells 2x 2x 4
 Maximum number of reciprocal cells 3x 3x 2

    FEWALD:  cpu time    0.0006: real time    0.0006


--------------------------------------- Iteration      1(   1)  ---------------------------------------


    POTLOK:  cpu time    0.0519: real time    0.0519
    SETDIJ:  cpu time    0.1255: real time    0.1255
     EDDAV:  cpu time   19.6770: real time   19.6773
       DOS:  cpu time    0.0015: real time    0.0015
    --------------------------------------------
      LOOP:  cpu time   19.8559: real time   19.8562

 eigenvalue-minimisations  : 40800
 total energy-change (2. order) :-0.3878967E+02  (-0.4864487E+02)
 number of electron      48.0000001 magnetization       0.0000000
 augmentation part       48.0000001 magnetization       0.0000000

 Free energy of the ion-electron system (eV)
  ---------------------------------------------------
  alpha Z        PSCENC =       192.87356740
  Ewald energy   TEWEN  =     -3558.02611946
  -Hartree energ DENC   =     -1248.55807146
  -exchange      EXHF   =         0.00000000
  -V(xc)+E(xc)   XCENC  =       235.89945665
  PAW double counting   =      5228.09310806    -5188.00219527
  entropy T*S    EENTRO =        -0.00000000
  eigenvalues    EBANDS =      -606.67133307
  atomic energy  EATOM  =      4905.60192075
  Solvation  Ediel_sol  =         0.00000000
  ---------------------------------------------------
  free energy    TOTEN  =       -38.78966640 eV

  energy without entropy =      -38.78966640  energy(sigma->0) =      -38.78966640


--------------------------------------------------------------------------------------------------------




--------------------------------------- Iteration      1(   2)  ---------------------------------------


     EDDAV:  cpu time   17.2790: real time   17.2859
       DOS:  cpu time    0.0016: real time    0.0016
    --------------------------------------------
      LOOP:  cpu time   17.2806: real time   17.2875

 eigenvalue-minimisations  : 34300
 total energy-change (2. order) :-0.8480710E+01  (-0.8388543E+01)
 number of electron      48.0000001 magnetization       0.0000000
 augmentation part       48.0000001 magnetization       0.0000000

 Free energy of the ion-electron system (eV)
  ---------------------------------------------------
  alpha Z        PSCENC =       192.87356740
  Ewald energy   TEWEN  =     -3558.02611946
  -Hartree energ DENC   =     -1248.55807146
  -exchange      EXHF   =         0.00000000
  -V(xc)+E(xc)   XCENC  =       235.89945665
  PAW double counting   =      5228.09310806    -5188.00219527
  entropy T*S    EENTRO =        -0.00000000
  eigenvalues    EBANDS =      -615.15204266
  atomic energy  EATOM  =      4905.60192075
  Solvation  Ediel_sol  =         0.00000000
  ---------------------------------------------------
  free energy    TOTEN  =       -47.27037599 eV

  energy without entropy =      -47.27037599  energy(sigma->0) =      -47.27037599


--------------------------------------------------------------------------------------------------------




--------------------------------------- Iteration      1(   3)  ---------------------------------------


     EDDAV:  cpu time   19.2265: real time   19.2268
       DOS:  cpu time    0.0017: real time    0.0017
    --------------------------------------------
      LOOP:  cpu time   19.2283: real time   19.2285

 eigenvalue-minimisations  : 38500
 total energy-change (2. order) :-0.1678008E+00  (-0.1677484E+00)
 number of electron      48.0000001 magnetization       0.0000000
 augmentation part       48.0000001 magnetization       0.0000000

 Free energy of the ion-electron system (eV)
  ---------------------------------------------------
  alpha Z        PSCENC =       192.87356740
  Ewald energy   TEWEN  =     -3558.02611946
  -Hartree energ DENC   =     -1248.55807146
  -exchange      EXHF   =         0.00000000
  -V(xc)+E(xc)   XCENC  =       235.89945665
  PAW double counting   =      5228.09310806    -5188.00219527
  entropy T*S    EENTRO =        -0.00000000
  eigenvalues    EBANDS =      -615.31984348
  atomic energy  EATOM  =      4905.60192075
  Solvation  Ediel_sol  =         0.00000000
  ---------------------------------------------------
  free energy    TOTEN  =       -47.43817681 eV

[...]
      1     -53.2793      1.00000
      2     -53.2793      1.00000
      3     -29.7260      1.00000
      4     -29.7260      1.00000
      5     -29.4319      1.00000
      6     -29.4319      1.00000
      7     -29.4061      1.00000
      8     -29.4061      1.00000
      9     -12.0113      1.00000
     10     -12.0113      1.00000
     11     -11.8328      1.00000
     12     -11.8328      1.00000
     13       0.2033      1.00000
     14       0.2033      1.00000
     15       0.2685      1.00000
     16       0.2685      1.00000
     17       1.4175      1.00000
     18       1.4175      1.00000
     19       2.1067      1.00000
     20       2.1067      1.00000
     21       3.6552      1.00000
     22       3.6552      1.00000
     23       4.1036      1.00000
     24       4.1036      1.00000
     25       7.9765      0.00000
     26       7.9765      0.00000
     27       8.4561      0.00000
     28       8.4561      0.00000
     29       8.6587      0.00000
     30       8.6587      0.00000
     31      10.5647      0.00000
     32      10.5647      0.00000
     33      10.5665      0.00000
     34      10.5665      0.00000
     35      16.2672      0.00000
     36      16.2672      0.00000
     37      18.3703      0.00000
     38      18.3703      0.00000
     39      19.3036      0.00000
     40      19.3036      0.00000

 k-point   179 :       0.5000    0.5000    0.4737
  band No.  band energies     occupation 
      1     -53.2786      1.00000
      2     -53.2786      1.00000
      3     -29.7336      1.00000
      4     -29.7336      1.00000
      5     -29.4267      1.00000
      6     -29.4267      1.00000
      7     -29.4089      1.00000
      8     -29.4089      1.00000
      9     -12.0188      1.00000
     10     -12.0188      1.00000
     11     -11.8151      1.00000
     12     -11.8151      1.00000
     13       0.1941      1.00000
     14       0.1941      1.00000
     15       0.2762      1.00000
     16       0.2762      1.00000
     17       1.4126      1.00000
     18       1.4126      1.00000
     19       2.0655      1.00000
     20       2.0655      1.00000
     21       3.6759      1.00000
     22       3.6759      1.00000
     23       4.1275      1.00000
     24       4.1275      1.00000
     25       7.9487      0.00000
     26       7.9487      0.00000
     27       8.4684      0.00000
     28       8.4684      0.00000
     29       8.6883      0.00000
     30       8.6883      0.00000
     31      10.5537      0.00000
     32      10.5537      0.00000
     33      10.5694      0.00000
     34      10.5694      0.00000
     35      16.2535      0.00000
     36      16.2535      0.00000
     37      18.3588      0.00000
     38      18.3588      0.00000
     39      19.2786      0.00000
     40      19.2786      0.00000

 k-point   180 :       0.5000    0.5000    0.5000
  band No.  band energies     occupation 
      1     -53.2783      1.00000
      2     -53.2783      1.00000
      3     -29.7362      1.00000
      4     -29.7362      1.00000
      5     -29.4244      1.00000
      6     -29.4244      1.00000
      7     -29.4103      1.00000
      8     -29.4103      1.00000
      9     -12.0213      1.00000
     10     -12.0213      1.00000
     11     -11.8092      1.00000
     12     -11.8092      1.00000
     13       0.1906      1.00000
     14       0.1906      1.00000
     15       0.2791      1.00000
     16       0.2791      1.00000
     17       1.4114      1.00000
     18       1.4114      1.00000
     19       2.0514      1.00000
     20       2.0514      1.00000
     21       3.6830      1.00000
     22       3.6830      1.00000
     23       4.1355      1.00000
     24       4.1355      1.00000
     25       7.9394      0.00000
     26       7.9394      0.00000
     27       8.4725      0.00000
     28       8.4725      0.00000
     29       8.6984      0.00000
     30       8.6984      0.00000
     31      10.5492      0.00000
     32      10.5492      0.00000
     33      10.5712      0.00000
     34      10.5712      0.00000
     35      16.2486      0.00000
     36      16.2486      0.00000
     37      18.3545      0.00000
     38      18.3545      0.00000
     39      19.2703      0.00000
     40      19.2703      0.00000


--------------------------------------------------------------------------------------------------------


 soft charge-density along one line, spin component           1
         0         1         2         3         4         5         6         7         8         9
 total charge-density along one line

 soft charge-density along one line, spin component           2
         0         1         2         3         4         5         6         7         8         9
 total charge-density along one line

 pseudopotential strength for first ion, spin component:           1
 -3.247 -22.301  -0.000   0.000  -0.000   0.000  -0.000   0.000
-22.301   9.955  -0.000   0.000  -0.000  -0.000   0.000  -0.000
 -0.000  -0.000 -25.604  -0.000   0.000   9.294   0.000  -0.000
  0.000   0.000  -0.000 -25.606  -0.000   0.000   9.294   0.000
 -0.000  -0.000   0.000  -0.000 -25.604  -0.000   0.000   9.294
  0.000  -0.000   9.294   0.000  -0.000   5.499  -0.000   0.001
 -0.000   0.000   0.000   9.294   0.000  -0.000   5.502  -0.000
  0.000  -0.000  -0.000   0.000   9.294   0.001  -0.000   5.499
  0.000  -0.001  -0.000  -0.000  -0.000   0.000   0.000   0.000
 -0.000  -0.000   0.000  -0.000  -0.000  -0.000   0.000   0.000
 -0.001  -0.001   0.000   0.000   0.000  -0.000  -0.000  -0.000
 -0.000  -0.000  -0.000  -0.000   0.000   0.000   0.000  -0.000
  0.000   0.000   0.000  -0.000  -0.000  -0.000   0.000   0.000
  0.000  -0.001  -0.000  -0.000  -0.000   0.000   0.000   0.000
 -0.000  -0.000   0.000  -0.000  -0.000  -0.000   0.000   0.000
 -0.001  -0.001   0.000   0.000   0.000  -0.000  -0.000  -0.000
 -0.000  -0.000  -0.000  -0.000   0.000   0.000   0.000  -0.000
  0.000   0.000   0.000  -0.000  -0.000  -0.000   0.000   0.000
 pseudopotential strength for first ion, spin component:           2
 -3.247 -22.301  -0.000   0.000  -0.000   0.000  -0.000   0.000
-22.301   9.955  -0.000   0.000  -0.000  -0.000   0.000  -0.000
 -0.000  -0.000 -25.604  -0.000   0.000   9.294   0.000  -0.000
  0.000   0.000  -0.000 -25.606  -0.000   0.000   9.294   0.000
 -0.000  -0.000   0.000  -0.000 -25.604  -0.000   0.000   9.294
  0.000  -0.000   9.294   0.000  -0.000   5.499  -0.000   0.001
 -0.000   0.000   0.000   9.294   0.000  -0.000   5.502  -0.000
  0.000  -0.000  -0.000   0.000   9.294   0.001  -0.000   5.499
  0.000  -0.001  -0.000  -0.000  -0.000   0.000   0.000   0.000
 -0.000  -0.000   0.000  -0.000  -0.000  -0.000   0.000   0.000
 -0.001  -0.001   0.000   0.000   0.000  -0.000  -0.000  -0.000
 -0.000  -0.000  -0.000  -0.000   0.000   0.000   0.000  -0.000
  0.000   0.000   0.000  -0.000  -0.000  -0.000   0.000   0.000
  0.000  -0.001  -0.000  -0.000  -0.000   0.000   0.000   0.000
 -0.000  -0.000   0.000  -0.000  -0.000  -0.000   0.000   0.000
 -0.001  -0.001   0.000   0.000   0.000  -0.000  -0.000  -0.000
 -0.000  -0.000  -0.000  -0.000   0.000   0.000   0.000  -0.000
  0.000   0.000   0.000  -0.000  -0.000  -0.000   0.000   0.000
 total augmentation occupancy for first ion, spin component:           1
  2.000   0.000   0.000   0.000   0.000   0.000   0.000   0.000   0.000   0.000   0.000   0.000   0.000   0.000   0.000   0.000
  0.000   1.000   0.000   0.000   0.000   0.000   0.000   0.000   0.000   0.000   0.000   0.000   0.000   0.000   0.000   0.000
  0.000   0.000   2.000   0.000   0.000   0.000   0.000   0.000   0.000   0.000   0.000   0.000   0.000   0.000   0.000   0.000
  0.000   0.000   0.000   2.000   0.000   0.000   0.000   0.000   0.000   0.000   0.000   0.000   0.000   0.000   0.000   0.000
  0.000   0.000   0.000   0.000   2.000   0.000   0.000   0.000   0.000   0.000   0.000   0.000   0.000   0.000   0.000   0.000
  0.000   0.000   0.000   0.000   0.000   0.000   0.000   0.000   0.000   0.000   0.000   0.000   0.000   0.000   0.000   0.000
  0.000   0.000   0.000   0.000   0.000   0.000   0.000   0.000   0.000   0.000   0.000   0.000   0.000   0.000   0.000   0.000
  0.000   0.000   0.000   0.000   0.000   0.000   0.000   0.000   0.000   0.000   0.000   0.000   0.000   0.000   0.000   0.000
  0.000   0.000   0.000   0.000   0.000   0.000   0.000   0.000   0.600   0.000   0.000   0.000   0.000   0.000   0.000   0.000
  0.000   0.000   0.000   0.000   0.000   0.000   0.000   0.000   0.000   0.600   0.000   0.000   0.000   0.000   0.000   0.000
  0.000   0.000   0.000   0.000   0.000   0.000   0.000   0.000   0.000   0.000   0.600   0.000   0.000   0.000   0.000   0.000
  0.000   0.000   0.000   0.000   0.000   0.000   0.000   0.000   0.000   0.000   0.000   0.600   0.000   0.000   0.000   0.000
  0.000   0.000   0.000   0.000   0.000   0.000   0.000   0.000   0.000   0.000   0.000   0.000   0.600   0.000   0.000   0.000
  0.000   0.000   0.000   0.000   0.000   0.000   0.000   0.000   0.000   0.000   0.000   0.000   0.000   0.000   0.000   0.000
  0.000   0.000   0.000   0.000   0.000   0.000   0.000   0.000   0.000   0.000   0.000   0.000   0.000   0.000   0.000   0.000
  0.000   0.000   0.000   0.000   0.000   0.000   0.000   0.000   0.000   0.000   0.000   0.000   0.000   0.000   0.000   0.000
  0.000   0.000   0.000   0.000   0.000   0.000   0.000   0.000   0.000   0.000   0.000   0.000   0.000   0.000   0.000   0.000
  0.000   0.000   0.000   0.000   0.000   0.000   0.000   0.000   0.000   0.000   0.000   0.000   0.000   0.000   0.000   0.000
 total augmentation occupancy for first ion, spin component:           2
  0.167   0.000   0.000   0.000   0.000   0.000   0.000   0.000   0.000   0.000   0.000   0.000   0.000   0.000   0.000   0.000
  0.000   0.083   0.000   0.000   0.000   0.000   0.000   0.000   0.000   0.000   0.000   0.000   0.000   0.000   0.000   0.000
  0.000   0.000   0.167   0.000   0.000   0.000   0.000   0.000   0.000   0.000   0.000   0.000   0.000   0.000   0.000   0.000
  0.000   0.000   0.000   0.167   0.000   0.000   0.000   0.000   0.000   0.000   0.000   0.000   0.000   0.000   0.000   0.000
  0.000   0.000   0.000   0.000   0.167   0.000   0.000   0.000   0.000   0.000   0.000   0.000   0.000   0.000   0.000   0.000
  0.000   0.000   0.000   0.000   0.000   0.000   0.000   0.000   0.000   0.000   0.000   0.000   0.000   0.000   0.000   0.000
  0.000   0.000   0.000   0.000   0.000   0.000   0.000   0.000   0.000   0.000   0.000   0.000   0.000   0.000   0.000   0.000
  0.000   0.000   0.000   0.000   0.000   0.000   0.000   0.000   0.000   0.000   0.000   0.000   0.000   0.000   0.000   0.000
  0.000   0.000   0.000   0.000   0.000   0.000   0.000   0.000   0.050   0.000   0.000   0.000   0.000   0.000   0.000   0.000
  0.000   0.000   0.000   0.000   0.000   0.000   0.000   0.000   0.000   0.050   0.000   0.000   0.000   0.000   0.000   0.000
  0.000   0.000   0.000   0.000   0.000   0.000   0.000   0.000   0.000   0.000   0.050   0.000   0.000   0.000   0.000   0.000
  0.000   0.000   0.000   0.000   0.000   0.000   0.000   0.000   0.000   0.000   0.000   0.050   0.000   0.000   0.000   0.000
  0.000   0.000   0.000   0.000   0.000   0.000   0.000   0.000   0.000   0.000   0.000   0.000   0.050   0.000   0.000   0.000
  0.000   0.000   0.000   0.000   0.000   0.000   0.000   0.000   0.000   0.000   0.000   0.000   0.000   0.000   0.000   0.000
  0.000   0.000   0.000   0.000   0.000   0.000   0.000   0.000   0.000   0.000   0.000   0.000   0.000   0.000   0.000   0.000
  0.000   0.000   0.000   0.000   0.000   0.000   0.000   0.000   0.000   0.000   0.000   0.000   0.000   0.000   0.000   0.000
  0.000   0.000   0.000   0.000   0.000   0.000   0.000   0.000   0.000   0.000   0.000   0.000   0.000   0.000   0.000   0.000
  0.000   0.000   0.000   0.000   0.000   0.000   0.000   0.000   0.000   0.000   0.000   0.000   0.000   0.000   0.000   0.000


------------------------ aborting loop because EDIFF is reached ----------------------------------------





 total charge

# of ion       s       p       d       tot
------------------------------------------
    1        2.218   6.309   1.488  10.014
    2        2.218   6.309   1.488  10.014
    3        1.567   3.545   0.000   5.112
    4        1.567   3.545   0.000   5.112
    5        1.567   3.545   0.000   5.112
    6        1.567   3.545   0.000   5.112
--------------------------------------------------
tot         10.705  26.797   2.975  40.477



 magnetization (x)

# of ion       s       p       d       tot
------------------------------------------
    1        0.000   0.000   0.000   0.000
    2        0.000   0.000   0.000   0.000
    3       -0.000  -0.000   0.000  -0.000
    4       -0.000  -0.000   0.000  -0.000
    5       -0.000  -0.000   0.000  -0.000
    6       -0.000  -0.000   0.000  -0.000
--------------------------------------------------
tot          0.000  -0.000   0.000  -0.000

    CHARGE:  cpu time    0.6649: real time    0.6649
    FORLOC:  cpu time    0.0017: real time    0.0017
    FORNL :  cpu time    2.9305: real time    2.9306
    STRESS:  cpu time    6.8506: real time    6.8507
    FORCOR:  cpu time    0.0489: real time    0.0489
    FORHAR:  cpu time    0.0060: real time    0.0060
    OFIELD:  cpu time    0.0005: real time    0.0005

  FORCE on cell =-STRESS in cart. coord.  units (eV):
  Direction    XX          YY          ZZ          XY          YZ          ZX
  --------------------------------------------------------------------------------------
  Alpha Z   192.87357   192.87357   192.87357
  Ewald   -1377.04269 -1377.04269  -803.94344     0.00000     0.00000     0.00000
  Hartree   307.49604   307.49604   631.27747     0.00000    -0.00000    -0.00000
  E(xc)    -246.92711  -246.92711  -246.22982     0.00000     0.00000     0.00000
  Local     250.35482   250.35482  -636.17159    -0.00000     0.00000    -0.00000
  n-local  -150.37040  -151.40766  -154.66269    -0.20768    -0.00000     0.00000
  augment   144.24188   144.24188   145.18686    -0.00000     0.00000     0.00000
  Kinetic   882.57900   884.57977   877.86038    -0.08530     0.00000    -0.00001
  Fock        0.00000     0.00000     0.00000     0.00000     0.00000     0.00000
  -------------------------------------------------------------------------------------
  Total       3.68686     3.68686     6.19074    -0.00000     0.00000     0.00000
  in kB      91.87787    91.87787   154.27540    -0.00000     0.00000     0.00000
  external pressure =      112.68 kB  Pullay stress =        0.00 kB


 VOLUME and BASIS-vectors are now :
 -----------------------------------------------------------------------------
  energy-cutoff  :      520.00
  volume of cell :       64.29
      direct lattice vectors                 reciprocal lattice vectors
     4.653272152  0.000000000  0.000000000     0.214902539  0.000000000  0.000000000
     0.000000000  4.653272152  0.000000000     0.000000000  0.214902539  0.000000000
     0.000000000  0.000000000  2.969202995     0.000000000  0.000000000  0.336790715

  length of vectors
     4.653272152  4.653272152  2.969202995     0.214902539  0.214902539  0.336790715


 FORCES acting on ions
    electron-ion (+dipol)            ewald-force                    non-local-force                 convergence-correction
 -----------------------------------------------------------------------------------------------
   -.258E-05 -.258E-05 -.333E-06   0.229E-04 0.229E-04 -.184E-06   0.000E+00 0.000E+00 0.000E+00   -.155E-04 -.155E-04 0.818E-06
   -.716E-05 -.716E-05 -.226E-06   0.661E-04 0.661E-04 0.184E-06   0.000E+00 0.000E+00 0.000E+00   -.536E-04 -.536E-04 -.136E-06
   -.454E+02 0.454E+02 -.371E-06   0.490E+02 -.490E+02 -.103E-06   -.335E+01 0.335E+01 0.331E-23   -.148E+00 0.148E+00 0.249E-06
   0.454E+02 -.454E+02 -.371E-06   -.490E+02 0.490E+02 -.103E-06   0.335E+01 -.335E+01 -.331E-23   0.148E+00 -.148E+00 0.249E-06
   0.454E+02 0.454E+02 -.396E-07   -.490E+02 -.490E+02 0.103E-06   0.335E+01 0.335E+01 0.414E-23   0.148E+00 0.148E+00 -.792E-07
   -.454E+02 -.454E+02 -.177E-07   0.490E+02 0.490E+02 0.103E-06   -.335E+01 -.335E+01 -.414E-23   -.148E+00 -.148E+00 -.794E-07
 -----------------------------------------------------------------------------------------------
   0.727E-04 0.727E-04 -.136E-05   0.000E+00 0.000E+00 0.593E-14   -.444E-15 0.444E-15 0.000E+00   -.737E-04 -.737E-04 0.102E-05


 POSITION                                       TOTAL-FORCE (eV/Angst)
 -----------------------------------------------------------------------------------
      2.32664      2.32664      1.48460         0.000000      0.000000     -0.000000
      0.00000      0.00000      0.00000         0.000000      0.000000     -0.000000
      0.90934      3.74393      1.48460         0.159162     -0.159162     -0.000000
      3.74393      0.90934      1.48460        -0.159162      0.159162      0.000000
      1.41729      1.41729      0.00000        -0.159162     -0.159162     -0.000000
      3.23598      3.23598      0.00000         0.159162      0.159162     -0.000000
 -----------------------------------------------------------------------------------
    total drift:                               -0.000001     -0.000001     -0.000000


--------------------------------------------------------------------------------------------------------



  FREE ENERGIE OF THE ION-ELECTRON SYSTEM (eV)
  ---------------------------------------------------
  free  energy   TOTEN  =       -47.44082087 eV

  energy  without entropy=      -47.44082087  energy(sigma->0) =      -47.44082087



--------------------------------------------------------------------------------------------------------


    POTLOK:  cpu time    0.1658: real time    0.1658


--------------------------------------------------------------------------------------------------------


 writing wavefunctions
     LOOP+:  cpu time  163.6285: real time  163.6369
    4ORBIT:  cpu time    0.0000: real time    0.0000



 total charge

# of ion       s       p       d       tot
------------------------------------------
    1        2.218   6.309   1.488  10.014
    2        2.218   6.309   1.488  10.014
    3        1.567   3.545   0.000   5.112
    4        1.567   3.545   0.000   5.112
    5        1.567   3.545   0.000   5.112
    6        1.567   3.545   0.000   5.112
--------------------------------------------------
tot         10.705  26.797   2.975  40.477



 magnetization (x)

# of ion       s       p       d       tot
------------------------------------------
    1        0.000   0.000   0.000   0.000
    2        0.000   0.000   0.000   0.000
    3       -0.000  -0.000   0.000  -0.000
    4       -0.000  -0.000   0.000  -0.000
    5       -0.000  -0.000   0.000  -0.000
    6       -0.000  -0.000   0.000  -0.000
--------------------------------------------------
tot          0.000  -0.000   0.000  -0.000


 total amount of memory used by VASP MPI-rank0   173297. kBytes
=======================================================================

   base      :      30000. kBytes
   nonl-proj :      91926. kBytes
   fftplans  :       3977. kBytes
   grid      :       4815. kBytes
   one-center:        186. kBytes
   wavefun   :      42393. kBytes

  
  
 General timing and accounting informations for this job:
 ========================================================
  
                  Total CPU time used (sec):      168.256
                            User time (sec):      151.185
                          System time (sec):       17.071
                         Elapsed time (sec):      168.373
  
                   Maximum memory used (kb):      269448.
                   Average memory used (kb):          N/A
  
                          Minor page faults:        14110
                          Major page faults:         2611
                 Voluntary context switches:          748
